ITEM: TIME
40.0
ITEM: TIMESTEP
0
ITEM: NUMBER OF ATOMS
482
ITEM: BOX BOUNDS pp pp pp
-199.871 199.871
-199.871 199.871
-199.871 199.871
ITEM: ATOMS type x y z
26 9.10342 54.1902 213.265
26 0.404211 24.2543 135.827
26 26.1706 20.9766 202.829
26 21.7387 60.7745 159.646
0 17.1597 13.1052 171.595
26 16.0637 25.4704 159.39
26 32.4255 54.3562 189.909
26 24.2798 8.57301 190.328
0 21.4371 16.8095 177.928
26 -1.13984 20.2437 89.47
0 28.2737 13.9003 177.29
26 31.2197 14.2673 188.864
26 32.7312 30.6154 177.19
0 33.0589 44.9686 170.839
0 35.5273 44.7089 179.088
0 33.6435 47.7772 170.752
26 38.45 53.5852 178.604
26 37.3049 55.5739 181.344
26 7.16546 5.00978 102.195
0 35.3443 43.1421 174.595
0 35.9289 45.9507 174.509
26 39.4459 55.1071 176.935
26 41.4977 55.9432 177.336
26 39.3767 55.0751 182.692
26 26.4945 23.5794 147.285
0 37.7931 45.4527 170.937
0 38.6159 45.3661 173.686
0 42.3087 46.2617 180.106
26 27.5109 0.762275 153.874
0 35.4902 32.3263 157.719
0 41.358 40.3195 171.208
26 38.5481 44.9352 160.947
26 38.6208 48.7157 160.942
26 29.1406 27.4928 133.22
26 29.5539 30.0583 132.109
26 52.8992 64.7912 184.215
0 31.5417 19.3731 139.001
26 30.1535 25.3846 132.847
26 32.8958 29.8317 130.53
26 32.6389 26.614 135.79
26 32.0809 31.3504 132.302
26 17.5863 -15.5762 100.737
0 26.7152 10.9684 119.19
0 29.6383 25.0117 118.758
26 34.5338 24.4774 128.069
26 34.3883 28.1553 129.609
26 35.437 29.6616 130.945
26 34.7798 27.2639 136.064
0 17.7748 2.99659 85.6309
0 31.7959 17.1564 116.366
26 36.1978 27.4328 125.717
26 37.3533 27.534 132.211
0 29.3296 -0.107006 110.563
0 29.2744 4.355 112.219
0 28.2134 7.33677 106.633
0 32.6738 12.6078 117.459
26 55.3925 44.5335 166.334
26 33.2056 60.4937 79.0079
26 55.303 59.6412 155.518
0 26.9163 -4.30933 100.657
0 31.5402 5.09878 104.068
0 33.1858 4.92566 109.567
0 29.6012 12.6291 97.3885
0 34.1168 13.4382 106.558
0 36.9317 18.8823 111.884
0 41.0457 18.4495 125.633
0 41.5004 32.7525 116.951
0 29.8415 -7.78917 102.671
0 31.6505 -3.82523 100.755
0 30.5344 3.61854 96.8257
0 33.111 11.9579 99.3158
0 36.8038 12.8535 105.736
0 5.3014 1.51495 0.856735
0 36.1661 -3.01618 109.925
0 34.867 2.86079 101.503
0 37.92 5.40976 109.665
0 36.859 8.39153 104.079
0 37.6818 8.30497 106.829
0 38.5046 8.21841 109.579
0 40.4966 13.7491 112.155
0 42.9985 29.1208 104.394
26 51.2439 46.2774 124.019
26 25.8944 -29.0092 82.0674
0 38.3236 -10.8715 107.533
0 43.1089 20.1968 101.081
0 42.4691 21.8501 102.824
0 45.6855 28.5362 103.572
0 45.2839 27.2943 108.151
0 46.2701 31.3448 103.485
0 43.5636 34.4997 92.3997
0 42.9238 36.1531 94.1425
26 52.2692 52.9288 105.253
26 49.359 59.0139 93.5478
0 44.6483 -6.09848 114.786
26 46.7132 -6.85187 123.74
26 0.461216 1.39918 -37.5364
26 46.9564 -3.85895 121.56
26 47.8399 -2.34382 123.021
26 48.698 -0.906116 126.233
26 54.0912 12.3052 132.646
0 45.1561 21.2655 102.002
0 45.7407 24.0742 101.915
0 46.5635 23.9876 104.665
0 47.8961 33.742 97.0767
26 -6.0126 -18.072 -49.6453
26 49.2974 -4.5749 122.542
26 50.3497 -2.56314 122.691
26 43.5313 17.2868 84.8278
0 49.6521 24.6448 99.2636
26 13.0925 40.809 -26.5754
26 56.6297 38.3956 114.703
26 44.5431 13.1681 81.7247
26 47.0194 13.4894 85.1991
26 46.4079 16.2849 82.1463
26 43.3791 14.4603 84.1645
26 7.0699 27.7131 -44.5623
0 51.2781 27.042 92.8552
0 51.3332 22.58 91.1989
26 61.2232 -1.70324 132.973
26 45.0635 4.33386 66.1954
26 39.8325 6.96056 54.3295
0 44.2766 11.5398 65.9751
26 56.181 45.634 80.4663
26 10.8049 -15.9483 -35.0614
26 27.3171 56.7211 -33.9734
26 14.3802 -19.8951 -34.6787
26 12.8557 -16.4614 -39.3072
26 13.5187 -14.6425 -37.7157
26 12.0736 14.4227 -58.5099
26 14.0872 15.4737 -57.6544
26 15.2874 -17.2893 -34.5525
26 19.3777 -16.6138 -33.2236
26 19.2239 -13.333 -36.4137
26 23.5867 27.9695 -43.4323
26 112.017 78.0511 207.34
26 23.2549 -31.3806 -16.8829
26 19.1582 -16.6497 -38.3853
26 21.3745 -15.8091 -34.1076
26 23.0446 -15.5249 -32.3729
26 22.7734 -12.3633 -35.5257
26 21.8405 -13.5675 -33.4577
0 33.0472 8.64317 -8.72057
26 24.8569 -15.6831 -35.8152
0 35.9723 5.16333 -6.70677
26 77.4554 47.4398 96.225
0 29.5554 -7.53021 -33.6733
0 36.4291 1.94317 -12.9421
0 36.939 11.7841 -23.2801
0 40.5766 17.1417 -15.204
0 34.1793 1.87791 -30.2628
0 41.7479 5.23592 -12.9307
0 65.609 2.72567 66.811
0 66.4318 2.63911 69.5607
26 51.9193 7.64589 16.3365
26 53.2466 10.3164 18.9647
26 68.1925 13.3269 73.0715
26 32.987 35.7686 -60.3157
0 41.2184 -2.03473 -14.5005
0 46.5568 -1.31225 -2.58123
0 41.3819 2.10232 -21.9157
0 45.9171 0.341112 -0.838415
0 41.7283 7.80618 -24.8385
26 52.7029 6.08591 14.4543
26 53.5551 6.0042 17.2565
26 55.1214 5.67958 22.5108
26 54.0497 8.70108 17.2085
26 54.8147 8.63959 19.9916
0 39.2048 12.5279 -31.4313
0 39.7894 15.3365 -31.5178
26 39.7442 40.445 -51.7712
0 45.1298 -1.46408 -17.1522
0 39.3151 3.60385 -34.7439
0 42.1851 4.58602 -31.0738
0 41.7835 3.34417 -26.4948
0 45.4763 4.23978 -20.075
0 44.2519 3.08449 -18.2456
0 46.2991 4.15322 -17.3253
0 45.0747 2.99793 -15.4959
0 45.8975 2.91137 -12.7462
0 46.7203 2.82481 -9.9965
26 56.416 2.52439 19.1043
0 44.8365 5.89314 -18.3322
0 45.6593 5.80658 -15.5824
0 46.4821 5.72002 -12.8327
26 54.1822 4.35799 15.5462
26 56.2832 5.32052 16.4743
26 56.9862 5.27313 19.1851
26 59.0128 6.2872 20.1788
0 45.4211 8.70179 -18.4187
0 46.2439 8.61523 -15.669
0 47.0667 8.52867 -12.9193
26 55.5649 7.01218 18.247
26 59.6345 9.04837 20.2746
26 60.4302 8.95475 22.9283
26 61.2083 8.82436 25.5248
26 57.7609 9.67292 23.6913
26 58.4763 9.50625 26.1125
26 60.5138 10.5603 27.1409
26 61.4715 10.4802 29.7096
26 47.0123 57.5027 -45.1872
0 46.994 -1.96214 -20.7244
0 47.8168 -2.0487 -17.9747
0 49.0608 -3.46368 -7.89618
0 49.8836 -3.55024 -5.14647
0 47.5786 0.846504 -20.8109
0 47.9998 -0.481906 -13.4821
0 50.8698 0.500263 -9.81204
0 51.291 -0.828147 -2.48328
0 55.8066 -0.019099 6.68623
0 54.5822 -1.17439 8.51557
0 46.9389 2.49986 -19.0681
0 48.9861 3.56859 -18.1477
0 49.8089 3.48203 -15.398
0 48.5845 2.32674 -13.5686
26 60.9782 2.79136 19.4664
26 61.9114 2.74902 22.1328
26 61.4867 1.7857 26.5743
0 47.1023 6.63692 -26.4833
26 60.7559 5.86982 16.7973
26 59.2183 3.4656 22.825
26 62.4973 5.50177 22.1646
26 62.0555 4.42586 26.4871
26 62.9489 4.47039 29.2205
26 61.0575 7.28323 21.1997
26 61.8528 7.16035 23.8307
26 62.6148 7.04238 26.4697
26 64.614 7.98146 27.5295
26 61.9602 8.71987 28.1051
26 62.87 8.6641 30.8999
26 72.6863 -25.5777 75.0391
26 64.465 -18.4204 40.1999
0 50.5786 -9.6656 -8.54558
0 52.3876 -5.70166 -10.4614
0 53.2104 -5.78822 -7.71172
0 54.0332 -5.87478 -4.962
0 51.3266 -2.7199 -16.0474
0 52.1494 -2.80646 -13.2977
0 53.795 -2.97958 -7.79824
0 50.2656 0.261874 -21.6333
0 52.734 0.00219302 -13.3842
0 53.5568 -0.0843673 -10.6345
0 53.978 -1.41278 -3.30571
0 55.6236 -1.5859 2.19371
26 61.1423 -1.5121 17.699
26 62.056 -1.50881 20.3983
0 50.8503 3.07052 -21.7198
0 53.7398 1.48243 -6.14194
26 61.7004 1.03644 17.7707
26 61.4019 0.161763 22.1285
26 64.5133 2.06543 21.3832
0 50.2105 4.72388 -19.977
0 53.0805 5.70605 -16.3069
0 52.6789 4.4642 -11.7279
0 54.3245 4.29108 -6.22846
26 64.852 3.73975 25.6911
0 53.0253 10.1681 -14.6506
26 47.8078 38.5937 -52.0393
26 56.8562 -33.763 16.5593
26 65.7609 -31.7285 43.9786
26 65.8152 -20.1061 41.2805
0 60.9089 -13.9245 18.2156
0 51.1436 -4.28669 -20.5399
0 53.612 -4.54637 -12.2908
0 57.3048 -3.65077 -5.87096
0 53.7754 -0.409316 -19.706
0 52.551 -1.56461 -17.8767
0 54.5982 -0.495877 -16.9563
0 53.3738 -1.65117 -15.127
0 55.421 -0.582437 -14.2066
0 54.1966 -1.73773 -12.3773
0 50.6672 1.50372 -26.2124
0 53.5372 2.48589 -22.5423
0 55.604 0.984362 -9.71409
26 65.192 0.51571 19.5495
0 53.7203 4.05269 -18.0497
26 72.5465 -23.7722 46.0579
0 59.6453 -9.93925 -3.77064
0 55.2932 -6.61124 -20.3554
0 56.299 -5.131 -13.1132
0 57.1218 -5.21756 -10.3635
0 54.4152 -2.06268 -21.4488
0 57.2852 -1.08051 -17.7788
0 56.0608 -2.2358 -15.9494
0 58.6926 1.64158 -15.1156
0 56.4072 3.46806 -18.8722
0 56.5392 -25.5493 -7.83056
26 74.127 -21.0194 43.9608
0 59.3876 -4.47378 -18.5147
0 60.2104 -4.56034 -15.765
0 61.0332 -4.64691 -13.0152
0 57.925 -2.73387 -19.5216
0 58.7478 -2.82043 -16.7719
0 59.5706 -2.90699 -14.0221
0 61.3796 1.05695 -15.938
0 59.0942 2.88343 -19.6946
26 50.1105 23.831 -66.5803
0 61.8364 -2.16321 -22.1733
0 62.6592 -2.24977 -19.4236
0 63.482 -2.33633 -16.6739
0 62.2576 -3.49162 -14.8446
0 64.3048 -2.42289 -13.9242
0 60.3738 -0.423287 -23.1802
0 61.1966 -0.509847 -20.4305
26 75.9446 44.3694 -9.16318
26 69.0306 -28.2311 7.73403
0 63.7006 -2.66128 -25.7455
0 64.5234 -2.74784 -22.9958
0 65.3462 -2.8344 -20.2461
0 66.169 -2.92096 -17.4963
0 66.9918 -3.00752 -14.7466
0 63.0608 -1.00792 -24.0027
0 63.8836 -1.09448 -21.253
0 64.7064 -1.18104 -18.5032
0 65.5292 -1.2676 -15.7535
26 55.8361 -30.008 -36.8876
26 70.3985 -29.9787 8.73078
0 66.3876 -3.24591 -26.5679
0 67.2104 -3.33247 -23.8182
0 68.0332 -3.41903 -21.0685
0 68.8559 -3.50559 -18.3188
0 67.6315 -4.66088 -16.4894
0 65.7478 -1.59255 -24.8251
0 66.5706 -1.67911 -22.0754
0 67.3934 -1.76567 -19.3257
0 64.6868 1.38922 -30.411
0 65.2714 4.19787 -30.4976
26 74.1745 22.4687 -16.8507
0 69.7339 -8.05415 -17.2254
0 67.8501 -4.98582 -25.561
0 70.7201 -4.00366 -21.8909
0 71.5429 -4.09022 -19.1412
0 70.3185 -5.24551 -17.3119
0 67.612 -2.09062 -28.3972
0 68.4348 -2.17718 -25.6475
0 69.2576 -2.26374 -22.8978
0 71.3048 -1.19501 -21.9774
0 70.0804 -2.3503 -20.1481
0 72.1276 -1.28157 -19.2277
0 67.3738 0.804593 -31.2335
0 68.1966 0.718033 -28.4838
0 70.2438 1.78676 -27.5634
0 69.0194 0.631472 -25.7341
0 67.9584 3.61324 -31.32
26 75.9623 21.8963 -20.3633
26 76.1499 19.3067 -17.6136
26 76.5039 22.0073 -17.6188
26 77.4933 24.594 -17.573
26 58.8442 28.4296 -75.7996
26 78.9807 40.2932 -28.9786
0 72.5292 -0.0397177 -23.8068
26 79.7705 21.4085 -18.6643
0 76.2771 -3.60612 -19.0433
0 77.0999 -3.69268 -16.2935
26 71.6803 3.57561 -57.1403
0 80.4819 -10.3927 -20.5151
26 72.4959 -33.4821 -45.2535
0 86.6235 -7.18649 -17.7539
26 97.3075 3.95463 6.3265
26 93.4341 23.7389 -15.0853
0 81.5197 -7.55541 -64.2166
26 89.9425 -35.2191 -29.3883
26 87.32 -33.3595 -33.0233
26 90.6823 -29.4392 -32.1543
26 88.6184 -29.2886 -28.7207
26 90.5948 -28.244 -27.8403
26 90.6946 -26.387 -34.8388
26 87.724 -26.8319 -32.1763
26 91.6471 -26.5202 -32.0208
0 88.5588 -11.4681 -48.4543
26 92.9699 -34.4796 -25.9221
26 91.2843 -33.9543 -31.138
26 91.564 -32.5997 -26.823
26 94.1362 -33.1321 -27.5537
26 92.7628 -31.3984 -28.5518
26 94.872 -30.3874 -27.5617
26 92.7187 -28.4497 -31.1678
26 94.7283 -27.3871 -30.2303
26 93.3756 -28.6635 -28.5635
26 95.3895 -27.5868 -27.6171
26 92.6887 -25.2375 -33.8213
26 94.7087 -24.2063 -32.8767
26 91.4621 -24.7638 -30.1466
26 95.5446 -24.417 -30.173
26 93.3907 -22.4968 -33.8692
26 95.2712 -21.2967 -32.9961
26 94.4402 -22.5229 -31.0835
26 94.1353 -20.8117 -29.3238
26 95.3118 -22.6426 -28.347
26 97.2053 -21.5461 -27.451
26 92.9981 -20.0886 -34.3283
26 95.1241 -19.4749 -31.1366
26 97.1661 -18.5434 -30.1057
26 90.8285 -64.3209 -18.343
26 95.056 -33.3393 -24.889
26 96.9717 -32.2356 -23.7812
26 96.8733 -29.2287 -26.5406
26 96.7374 -26.2733 -29.2959
26 97.372 -26.418 -26.7262
26 97.2689 -22.3121 -25.133
26 98.2593 -20.4722 -29.2656
26 100.109 -19.2893 -28.285
26 99.1278 -20.6794 -26.4119
26 91.0665 -68.079 -30.9857
26 94.2744 -60.2227 -22.5401
26 98.7668 -32.5221 -27.2911
26 97.9901 19.0491 -64.6342
26 92.1333 -68.317 -32.97
0 99.1433 -17.9436 -44.3287
26 103.953 2.99364 -45.8006
26 93.5044 -71.9897 -31.7066
26 93.2289 -68.5172 -35.0845
26 95.8696 -68.8002 -32.1264
26 99.9029 -16.6347 -65.6328
26 121.497 -16.147 -2.32632
26 110.815 -11.5701 -43.8567
0 98.8387 -78.1085 -47.6309
0 107.521 -64.6712 -28.8155
26 130.802 -15.4777 9.90996
26 112.409 -1.14077 -55.2105
26 114.521 5.94857 -48.3765
0 102.002 -84.4835 -42.7808
0 101.471 -74.2311 -46.797
0 104.102 -70.3537 -45.9631
0 107.264 -59.2057 -43.5595
26 120.055 -10.8097 -31.4969
0 102.75 -77.5378 -50.2826
26 131.389 -18.9041 -0.802192
0 127.131 -16.9594 -13.6901
26 124.008 -11.655 -30.6122
0 107.484 -77.0537 -50.1847
0 105.199 -75.2272 -53.9413
0 107.831 -71.3499 -53.1074
26 121.951 -50.5375 -19.2934
0 130.458 -19.1974 -16.2554
26 115.663 -94.7167 -18.7897
0 109.11 -74.6566 -56.5931
0 133.145 -19.782 -17.0778
0 113.681 -78.3095 -49.0798
0 113.864 -76.7427 -44.5873
0 114.687 -76.8293 -41.8376
26 123.389 -23.142 -54.0714
0 114.722 -78.721 -55.4017
0 140.987 -21.211 -10.4735
26 137.368 -18.6856 -27.258
26 113.673 -108.387 -47.859
26 112.748 -82.2361 -61.8682
0 117.831 -80.6341 -48.8954
26 111.22 -77.7059 -73.1153
26 112.922 -75.2906 -73.691
0 124.447 -65.6952 -42.9082
26 127.17 -45.8591 -45.2546
26 140.299 -19.2398 -24.377
26 123.143 -83.1995 -42.48
0 122.51 -75.688 -47.1411
26 121.291 -44.7951 -75.8485
0 151.406 -14.3005 -1.3791
26 107.486 -113.838 -81.5345
0 125.252 -80.7346 -49.6199
0 124.482 -67.587 -56.4723
26 124.442 -38.1925 -77.3189
26 138.578 -12.5799 -56.7055
26 122.738 -73.6236 -70.4573
0 129.454 -69.9981 -53.5381
0 155.849 -23.9823 -0.0146949
26 146.887 0.0913913 -43.8262
0 158.189 -30.2708 2.08562
0 155.666 -25.5491 -4.50722
26 131.433 -74.3677 -61.7319
0 160.4 -25.065 -4.40927
0 158.699 -20.4298 -8.2524
26 126.399 -85.4602 -77.7423
26 166.585 -23.2147 1.92586
26 164.213 -21.2407 2.81477
26 138.854 -86.4175 -48.8642
26 140.344 -65.7807 -55.9337
26 150.585 -46.5833 -38.1749
26 163.325 -41.0871 -3.64067
26 162.339 0.0466976 -33.4935
26 141.903 -85.6331 -49.4306
26 146.37 -61.7437 -51.4374
26 167.127 -124.144 -14.1075
26 142.635 -111.762 -106.063
