ITEM: TIME
40.0
ITEM: TIMESTEP
0
ITEM: NUMBER OF ATOMS
312
ITEM: BOX BOUNDS pp pp pp
-242.701 242.701
-242.701 242.701
-242.701 242.701
ITEM: ATOMS type x y z
26 75.4177 78.8628 -100.358
26 157.387 72.0017 -144.659
26 136.099 36.6254 -134.267
26 154.855 45.2828 -136.632
26 156.238 60.8935 -98.2072
0 179.404 53.7875 -104.498
26 160.727 31.8277 -127.002
0 167.301 34.9155 -120.73
0 172.798 45.2209 -106.614
0 176.398 46.29 -103.69
26 175.111 47.3095 -98.0396
26 219.984 54.9483 -121.718
0 178.31 41.3726 -101.428
0 160.923 30.6105 -102.849
0 165.644 30.4469 -107.194
0 174.151 33.5901 -107.549
0 175.479 35.607 -104.286
0 173.206 36.5548 -103.947
26 10.279 13.8688 -2.8707
26 58.4769 36.3079 1.71256
0 166.6 27.9882 -106.063
0 170.572 33.5329 -101.007
26 1.68376 8.98297 -4.48593
26 53.0126 12.0344 -39.2896
26 135.299 45.7914 -31.7571
26 153.928 42.377 -54.9303
0 177.39 30.6897 -102.024
26 182.774 47.3465 -76.0111
26 183.962 47.0019 -73.9162
0 178.739 33.7185 -89.2964
26 200.046 36.201 -100.985
26 66.9131 20.277 -18.5346
26 190.604 32.7009 -92.5578
26 192.765 33.4367 -95.8208
26 197.136 34.2135 -97.9743
26 195.779 35.8303 -96.6658
26 203.13 33.6323 -101.021
26 200.643 36.3244 -96.9677
0 -0.162901 -1.37511 0.152774
26 30.4639 0.702491 -19.2969
0 31.2103 7.16416 -7.79385
26 62.0459 27.7877 13.006
26 144.434 30.3856 -54.9095
0 166.33 43.2317 -47.2042
0 167.472 43.0108 -45.0073
26 192.988 29.4475 -93.8884
26 189.639 31.4691 -94.3629
26 195.484 30.0932 -95.1684
26 194.233 31.5186 -90.596
26 197.597 32.4611 -92.5308
26 180.607 52.3062 -37.563
0 6.84121 -1.98057 0.201601
26 23.4048 -6.6583 -27.6117
0 31.0349 5.43233 -4.12702
0 28.7622 6.38008 -3.78802
26 23.2312 12.2599 15.7188
26 144.511 36.3995 -34.7622
0 170.69 39.0984 -48.948
0 167.286 40.773 -46.0732
0 169.745 42.0631 -45.3463
26 197.29 30.0418 -93.3102
26 196.475 30.84 -91.0935
26 202.039 30.5045 -96.9742
26 203.303 31.4841 -94.5393
26 182.794 50.4721 -36.4113
0 31.9906 2.97365 -2.99604
0 34.4386 3.75773 -7.00187
0 34.4493 4.26369 -2.2692
26 198.094 25.9631 -95.6904
26 200.158 26.3327 -96.765
26 198.54 27.5584 -92.1978
26 197.51 28.2924 -89.9654
26 167.204 48.0613 -24.6737
26 202.395 26.5156 -97.6059
0 212.794 32.6439 -94.916
26 27.1275 -2.19693 -8.38426
0 28.2149 0.172672 -2.25289
0 35.405 1.805 -1.13822
26 75.2245 8.02364 -24.949
0 67.3576 18.0696 3.57806
26 107.406 28.0125 -10.6254
26 202.195 23.9884 -91.9734
26 180.378 55.7132 -11.9782
26 8.80835 -9.04214 3.10368
0 35.219 -0.432788 -2.20407
26 45.991 -1.81207 -10.7499
0 167.508 29.8691 -44.4729
26 204.144 11.1353 -116.03
0 73.607 8.00698 -5.36919
26 163.01 12.9128 -75.8029
0 69.6452 2.96822 -5.69189
0 74.5626 5.5483 -4.2382
26 66.6157 15.0257 19.4216
26 84.6006 12.9456 5.53043
0 196.996 29.6782 -58.8798
0 81.3701 2.19909 -9.9879
26 75.4659 13.3998 15.9018
26 78.282 13.3653 16.9751
0 170.375 22.4931 -41.08
26 171.308 32.1048 -24.6601
26 204.464 18.9508 -79.2541
0 74.2013 1.57868 -1.63723
0 77.791 2.14186 -3.44623
0 76.66 2.86872 -0.910387
0 178.697 23.3986 -42.5011
26 202.911 15.3037 -78.6722
26 204.011 15.1775 -76.5114
26 205.171 16.8581 -77.9115
26 205.799 18.9092 -72.2931
26 207.061 18.597 -74.7793
0 53.4327 -6.49691 9.28189
26 144.014 16.3937 -17.4191
0 192.694 21.6817 -47.1362
0 191.563 22.4085 -44.6003
0 196.273 21.7389 -53.6778
0 195.142 22.4658 -51.142
0 214.763 15.5968 -82.6542
26 142.54 13.0752 -18.9947
26 148.249 13.7088 -21.7775
26 149.482 13.9024 -19.3208
26 143.997 15.3639 -15.3445
26 152.8 13.6559 -25.208
0 190.049 18.1539 -48.9289
0 193.65 19.223 -46.0052
0 192.519 19.9499 -43.4693
0 201.015 22.5872 -48.5573
0 215.926 16.3878 -70.9921
0 58.9231 -11.3571 5.00219
0 56.6717 -9.39739 14.8065
26 135.42 8.34845 -11.1236
26 140.965 7.89042 -16.6201
26 145.122 8.61347 -18.6526
26 148.067 12.3377 -18.2227
26 145.618 13.6048 -12.189
0 159.839 10.4056 -29.32
0 165.888 12.2588 -30.4022
0 164.757 12.9857 -27.8664
0 193.474 17.4912 -42.3384
0 207.233 11.0067 -71.7026
0 220.078 9.0048 -83.2671
0 214.423 12.6391 -70.5879
0 222.536 10.2948 -82.5403
0 224.995 11.5849 -81.8134
0 51.765 -11.4715 18.0855
0 109.408 0.78917 -0.327245
0 130.001 7.13293 -7.57955
0 127.739 8.58664 -2.50786
26 143.02 7.22791 -15.5235
0 166.843 9.80015 -29.2712
0 216.499 8.94757 -76.7254
0 217.64 8.72667 -74.5286
0 215.368 9.67442 -74.1896
0 218.957 10.2376 -75.9986
0 217.826 10.9645 -73.4628
0 221.416 11.5276 -75.2718
0 223.875 12.8177 -74.5449
0 230.858 11.2003 -83.9614
0 229.727 11.9272 -81.4256
26 75.0014 -19.9055 -14.5905
26 68.1064 -12.3807 15.0283
0 130.771 2.43646 -7.51441
0 160.609 5.70914 -29.2549
0 163.068 6.99918 -28.5281
0 175.175 11.2116 -25.9597
0 209.537 11.5769 -57.8436
0 218.782 8.50577 -72.3318
0 221.252 10.3018 -66.8723
26 52.3557 -21.1286 12.9424
26 52.5938 -18.965 14.0409
0 115.292 1.41652 6.9901
0 166.285 3.08679 -32.4688
26 211.956 -7.90898 -96.7631
26 199.344 6.88593 -46.4466
0 217.29 5.26301 -67.195
0 215.017 6.21076 -66.856
0 228.993 3.48197 -80.9563
26 211.941 15.2553 -40.644
26 60.2325 -19.3528 17.5955
0 110.406 0.354312 19.7344
0 111.723 1.86525 18.2644
26 154.933 -10.2804 -40.9214
0 211.263 4.42169 -56.6475
0 218.245 2.80432 -66.064
0 215.973 3.75207 -65.725
0 215.038 7.22267 -57.3906
26 214.901 13.0699 -38.7538
26 84.0368 -7.3846 28.7359
0 118.345 -3.72175 11.4489
26 135.896 -3.19577 -0.46893
0 215.994 4.76398 -56.2596
0 121.366 -10.3779 1.70967
0 114.569 -6.52272 12.192
0 115.711 -6.74362 14.3889
0 113.438 -5.79587 14.7279
0 119.29 -6.68639 7.8472
0 119.3 -6.18043 12.5799
0 115.897 -4.50583 15.4547
0 124.01 -6.85005 3.50236
26 120.665 3.52966 30.705
26 163.004 -9.21978 -32.9621
0 220.157 -2.11305 -63.802
0 236.029 4.39438 -66.7095
0 115.525 -8.9814 13.323
0 114.394 -8.25455 15.8589
0 120.245 -9.14507 8.97819
0 118.191 -4.44166 24.5811
0 133.473 -6.16547 4.27803
26 167.408 -15.2172 -40.4327
26 156.976 -0.708472 -5.54232
0 219.037 -0.880239 -56.5335
0 238.323 4.45854 -57.5831
0 112.311 -19.7286 3.60011
26 139.406 -24.9499 -30.6914
26 159.873 -7.79606 -8.66217
26 154.839 9.00283 26.5508
26 112.687 -35.2646 -23.2408
26 92.3919 -19.6054 22.387
0 115.174 -12.4451 20.6567
0 122.167 -13.5565 15.9728
26 151.044 4.45587 25.2261
26 195.016 -5.34963 -29.3408
0 219.423 -10.5582 -63.3327
26 211.005 12.4846 -7.88818
0 129.172 -14.1619 16.0217
26 121.983 0.88292 53.2929
26 197.47 -5.61828 -29.0038
26 195.891 -6.64532 -25.302
26 214.511 1.10237 -24.8694
26 109.146 -17.1557 30.0675
26 198.703 -9.61774 -23.3292
0 207.773 -6.24742 -25.908
26 198.046 -0.550279 -3.46912
26 148.737 4.60044 64.0401
26 132.194 -22.7557 23.8975
26 130.972 -15.1163 48.7089
26 171.832 -22.8577 -2.22592
0 150.396 -27.3882 13.0357
26 124.228 -4.84248 78.6073
26 170.858 2.50858 55.086
26 188.003 4.64957 49.0273
26 149.162 -23.3644 29.9916
0 157.814 -21.4942 34.1469
26 160.811 -8.72331 55.3569
0 158.759 -24.4589 30.5452
0 161.218 -23.1688 31.2721
26 224.167 -47.221 -74.3983
26 256.287 -3.71149 -5.00487
26 147.016 -33.3251 31.9343
26 144.813 -32.4367 32.2182
0 157.267 -27.7016 35.6821
0 161.988 -27.8653 31.3372
0 160.857 -27.1384 33.8731
0 164.447 -26.5753 32.0641
0 170.681 -22.4842 32.0478
26 191.106 -30.1112 1.88064
0 157.081 -29.9394 34.6162
0 161.813 -29.5971 35.004
0 163.13 -28.0862 33.5341
0 172.778 -25.1638 35.3756
0 174.303 -20.4032 44.4368
26 144.912 -50.2606 9.88525
0 131.581 -38.3573 45.1475
26 137.558 -35.3429 50.9497
26 140.705 -33.9099 49.0706
26 139.095 -35.4143 48.6409
0 159.365 -30.3812 39.0099
0 175.799 -31.82 25.6364
0 178.247 -31.0359 21.6305
0 177.116 -30.309 24.1664
0 178.258 -30.5299 26.3632
0 173.734 -27.6225 36.5066
26 116.632 -60.0539 17.8669
0 144.448 -39.3473 43.0483
26 140.997 -36.538 49.277
0 138.782 -36.219 50.9949
26 140.888 -37.3201 53.7095
26 141.086 -35.1457 52.7857
26 142.11 -35.5906 54.909
26 139.545 -35.3191 54.494
0 165.041 -33.0036 35.796
0 176.007 -28.5703 36.1676
26 125.926 -61.5678 17.6181
26 139.612 -39.2328 49.727
26 142.16 -39.1713 52.9418
26 143.63 -38.8211 51.1209
26 142.645 -38.1296 55.2818
26 143.163 -35.9406 56.9827
26 146.557 -35.5146 55.0795
26 150.513 -34.7317 57.2691
0 167.138 -35.6831 39.1238
0 165.062 -31.9916 45.2614
26 147.677 -39.9081 55.3359
26 145.105 -39.1186 55.6572
0 177.328 -41.7189 21.0339
0 139.791 -36.1479 75.7892
0 166.591 -41.8905 40.659
0 173.574 -43.5079 31.2424
0 165.657 -38.42 48.9933
26 164.174 -35.0952 59.4614
26 109.25 -63.9822 50.1007
0 172.847 -36.7876 50.108
0 177.009 -43.6647 42.5656
26 131.922 -47.6612 91.8583
26 115.527 -67.3755 74.0462
26 162.367 -42.9004 87.7357
26 176.425 -85.3542 -6.36026
26 142.924 -64.1391 72.2998
26 158.965 -65.2808 60.0409
26 144.994 -71.6809 76.1092
26 136.773 -63.8851 96.2786
26 136.826 -66.0065 108.067
26 150.143 -83.0234 81.7051
