ITEM: TIME
40.0
ITEM: TIMESTEP
0
ITEM: NUMBER OF ATOMS
380
ITEM: BOX BOUNDS pp pp pp
-242.701 242.701
-242.701 242.701
-242.701 242.701
ITEM: ATOMS type x y z
26 9.65388 -27.6862 77.0644
0 57.06 -9.78579 84.7149
0 54.1668 -7.32134 81.8493
0 -0.959364 0.460269 -0.268884
0 52.2393 -13.2858 78.6654
26 65.3451 0.396645 81.4807
26 63.177 -13.5938 82.3099
26 6.6851 15.466 -10.171
26 24.3068 27.1099 5.00745
26 67.6286 -14.2769 81.3444
26 64.4433 -12.8551 79.8523
26 68.9405 -13.1662 82.946
26 25.2761 19.6578 4.93721
0 14.4791 -0.201712 -0.612952
0 16.5887 16.5173 -9.92551
26 41.3725 74.5042 -19.3065
0 20.6515 16.6448 -7.44902
0 23.0164 -0.727254 0.378026
0 23.0235 19.3619 -13.9757
26 41.7416 -2.18165 19.833
0 19.3725 18.4538 -20.4142
0 26.9441 26.3572 -19.1049
26 11.9527 -12.1192 -14.1181
26 60.9358 -14.168 51.1511
0 67.2223 -13.6998 57.4322
0 38.3346 5.74485 4.85381
0 37.8681 8.7259 2.1387
0 38.7135 7.43109 6.64027
0 36.3196 4.4477 0.741315
26 20.7259 19.4459 -30.8732
26 41.0194 14.1163 -0.0360625
26 46.6155 12.892 8.88945
0 30.5732 26.999 -25.092
0 32.2093 26.6099 -22.766
26 21.4442 48.2797 -47.7372
0 41.173 5.48091 1.04226
0 75.3259 -13.7111 49.9596
0 76.4955 -11.1191 49.5705
26 45.0963 22.9856 -12.9612
0 37.2448 38.3976 -34.9615
26 52.2689 33.7209 -15.3719
26 45.5633 -6.50728 -1.23678
26 47.649 -5.50922 0.810137
0 44.8492 43.8342 -39.4007
0 41.4896 49.2797 -44.9814
0 61.3703 -9.56972 14.4242
0 81.3818 -12.5527 44.1229
26 58.2865 39.6686 -22.0108
26 69.8529 -21.0826 26.7716
26 81.4727 -21.4452 44.3464
26 69.2454 -13.8785 24.9639
26 85.1804 -16.9096 41.8901
0 66.6355 -9.31706 10.7631
26 59.7171 44.7302 -36.498
26 61.5467 -19.4368 6.58522
0 66.8105 -18.6516 12.6204
0 67.9801 -16.0597 12.2313
26 61.2269 -3.53728 -3.78589
26 48.7274 45.9501 -55.1043
0 74.7063 -6.86155 9.039
26 106.797 11.4264 31.1292
26 69.6142 -16.2752 -0.410207
0 94.4591 -18.6648 32.1314
0 95.6287 -16.0729 31.7424
0 97.968 -10.889 30.9642
0 87.7728 -10.2406 15.2216
0 95.953 -12.1861 26.8517
0 96.3647 -12.9667 22.8897
0 99.6368 -13.7449 27.5417
0 100.806 -11.1529 27.1526
26 83.2789 -3.87703 -2.53523
26 113.219 -10.1799 43.4837
26 104.049 -27.2865 30.1224
26 102.572 -9.04996 19.2296
0 103.623 -11.6832 10.9155
26 117.97 8.1942 12.1266
26 142.601 10.8998 41.1183
26 109.08 -7.83007 6.0183
0 112.951 -11.303 9.73093
0 114.499 -7.02481 11.1283
26 110.5 0.498992 -3.29983
0 116.547 -8.19445 9.49232
26 133.759 -25.6726 24.5767
26 124.496 -11.2481 2.53065
0 137.448 -17.6721 19.7701
0 135.345 -14.3019 14.7289
0 137.772 -13.7853 14.8794
26 133.234 -9.31236 4.68156
26 158.332 -22.6498 28.0945
26 153.496 -15.7627 16.8613
26 158.529 -0.548675 17.5359
26 149.99 0.853919 0.734492
0 158.097 -15.8809 9.0878
0 158.476 -14.1946 10.8743
26 167.22 1.28778 8.13705
0 160.523 -15.3643 9.23828
26 172.911 -17.1732 22.3162
26 180.798 -10.5676 22.307
26 181.886 -19.4251 20.0132
26 192.066 -46.8887 47.3121
26 208.371 7.43472 19.0296
26 207.123 9.37859 18.49
26 212.376 5.11565 20.5391
26 232.86 -29.2765 53.4008
26 200.714 -24.3658 6.87052
26 249.762 -12.8219 57.3533
26 219.949 -58.2344 45.0961
26 229.192 -43.3206 40.7097
26 230.285 -43.9775 42.8163
26 231.402 -42.8002 40.7958
0 226.544 -6.86388 10.2677
0 223.596 -2.19893 0.724997
26 231.431 -45.1537 34.9415
0 224.001 -23.0686 11.1167
0 229.146 -15.6819 12.2754
0 221.345 -12.0501 2.4318
0 225.407 -11.9226 4.9083
0 222.514 -9.45817 2.04272
0 228.213 -9.71977 6.84524
0 229.849 -10.1089 9.17126
0 231.019 -7.51692 8.78218
0 225.961 -19.571 8.55204
0 228.3 -14.3871 7.77388
0 230.261 -10.8894 5.20924
0 231.897 -11.2785 7.53527
0 231.43 -8.29747 4.82016
0 233.066 -8.68657 7.14619
0 238.678 -4.28087 11.0201
0 240.314 -4.66998 13.3461
26 236.695 6.72567 4.4526
26 250.558 16.4712 9.63366
26 249.3 18.5101 9.07073
0 232.687 -10.3728 5.35972
0 235.114 -9.85621 5.51019
0 237.92 -7.65336 7.44713
0 237.832 -2.98607 6.5185
0 239.002 -0.394121 6.12941
26 238.944 -30.5331 19.6771
26 240.712 -29.1241 19.0243
0 234.119 -21.7827 7.75655
0 234.735 -11.5425 3.72372
0 236.371 -11.9316 6.04975
0 235.905 -8.95051 3.33464
26 248.853 25.3873 -8.98232
0 234.287 -51.2065 23.9675
26 240.571 -35.6293 19.6019
26 238.399 -31.3206 15.865
26 242.465 -29.8603 17.7606
26 253.893 3.97725 11.3603
0 232.597 -48.6169 14.9644
26 242.597 -36.0399 18.309
26 241.838 -32.531 17.5022
26 276.325 -22.0351 49.6481
26 242.707 3.40066 -10.9229
0 239.553 -50.9538 20.3064
0 241.567 -49.6567 24.4189
0 238.153 -42.0107 12.1611
26 290.625 -11.2881 57.3038
26 251.909 0.250007 1.58721
26 241.555 4.97638 -13.3536
26 265.939 -82.0428 71.7639
26 223.607 -32.7676 -17.6335
26 261.249 4.23778 2.68645
26 230.594 -46.5797 -3.73756
0 246.366 -46.423 18.0428
0 253.701 -47.0737 25.1713
26 255.761 3.9055 -4.94759
26 278.408 -67.1166 66.5764
0 247.332 -54.8518 17.7245
0 252.153 -51.3519 23.7739
26 275.759 -78.724 66.3766
0 256.161 -49.0239 19.5733
0 257.006 -50.3187 24.0749
26 263.411 -51.0706 32.6867
0 251.631 -46.1703 14.3817
26 290.78 -4.00051 31.9803
0 248.155 -56.4129 9.80045
26 278.818 -52.6242 46.3864
26 280.571 -49.1091 44.5347
26 250.299 -40.2596 2.10281
26 268.867 -38.699 25.6994
26 260.403 -32.8735 9.63924
26 258.735 -32.0849 7.50306
26 263.147 -30.2368 10.9514
26 261.69 -29.7277 8.94041
26 264.343 -28.0077 10.9453
26 305.677 -31.2041 64.8804
26 259.253 -90.4225 44.2372
0 295.546 -65.4964 70.578
26 279.092 -56.6414 43.5207
26 279 -56.1717 47.2923
26 280.553 -56.9143 45.5941
26 280.392 -53.8696 42.7871
26 282.197 -51.137 44.7675
26 284.457 -50.4587 45.0989
26 283.022 -48.6325 44.3439
0 280.599 -30.3702 26.7557
0 278.875 -25.3138 23.5011
0 249.824 -59.2688 6.37799
0 254.732 -60.4361 13.3561
26 283.049 -57.3707 45.699
26 284.189 -54.0584 41.5398
26 283.605 -55.4144 43.4313
26 281.322 -55.9969 43.5503
26 284.692 -55.4477 45.4744
26 282.602 -53.1826 43.148
26 284.594 -51.8738 43.3469
0 278.205 -33.3536 20.8568
0 279.375 -30.7617 20.4677
0 280.078 -25.1887 17.3635
0 281.714 -25.5778 19.6895
0 280.923 -26.4835 21.8651
0 284.986 -26.356 24.3416
0 281.247 -22.5967 16.9744
0 282.093 -23.8915 21.476
0 271.81 -18.5759 4.80473
26 269.804 -14.8252 -2.82869
0 290.995 -62.9091 52.9608
0 295.436 -61.0953 57.2238
0 297.073 -61.4845 59.5498
26 287.256 -53.978 39.7477
26 289.721 -55.0867 44.5373
26 286.783 -51.752 40.1894
26 286.263 -52.8221 42.1041
0 282.268 -33.2261 23.3333
0 283.904 -33.6152 25.6593
0 282.126 -26.3583 15.7275
0 282.971 -27.6531 20.2291
0 284.141 -25.0612 19.84
26 301.83 -100.971 91.2554
26 268.096 -80.4253 31.5773
26 265.347 -79.363 30.0708
26 288.196 -56.3929 43.0608
26 289.084 -52.2144 39.5028
0 298.741 -64.3403 56.1273
0 300.377 -64.7294 58.4534
0 289.027 -26.4947 14.3924
26 277.618 -75.9017 26.5354
26 263.561 -51.2569 -9.89215
26 269.686 -40.225 -8.8276
26 304.76 -38.6608 34.0035
26 307.556 -35.9816 34.4393
26 306.626 -36.907 36.6303
0 319.536 -26.5056 42.5175
26 318.504 -5.40215 27.2931
26 301.409 -96.1813 53.2634
26 301.441 -97.4803 56.9409
26 319.925 -11.9151 13.7115
0 305.125 -82.1174 41.5797
26 322.556 -17.4866 13.4324
26 324.081 -17.1377 15.1381
26 323.59 -16.8894 19.2877
26 286.256 -2.22563 -39.0193
0 308.2 -73.8273 31.9488
0 308.113 -69.16 31.0202
0 315.448 -69.8107 38.1487
0 318.024 -56.0728 31.5513
26 310.915 -45.5481 16.2188
26 325.153 -14.9253 14.6538
0 313.899 -74.0889 36.7513
0 317.496 -70.9804 36.5127
0 316.239 -68.905 35.9732
0 318.665 -68.3884 36.1237
0 317.875 -69.2941 38.2992
0 336.818 -39.3581 40.6083
0 338.928 -22.6391 31.2957
0 315.244 -80.8316 38.2195
0 312.675 -74.4804 30.4633
0 318.286 -70.0747 34.3372
0 319.922 -70.4638 36.6632
0 319.456 -67.4827 33.9481
0 323.431 -62.6879 35.496
0 330.449 -47.1362 33.1615
0 331.619 -44.5443 32.7724
0 333.255 -44.9334 35.0984
0 331.152 -41.5632 30.0573
0 334.661 -33.7874 28.89
0 316.588 -87.5742 39.6877
0 330.624 -56.4708 35.0187
0 331.327 -50.8978 31.9146
0 332.497 -48.3059 31.5255
0 336.093 -45.1973 31.2869
0 333.2 -42.7329 28.4213
0 340.068 -40.4025 32.8347
0 336.709 -34.957 27.254
0 313.965 -79.0225 25.2544
0 315.135 -76.4306 24.8653
0 322.003 -74.1002 29.2787
0 324.721 -67.2301 30.287
0 326.357 -67.6192 32.6131
0 325.891 -64.6381 29.898
0 327.527 -65.0272 32.224
0 338.607 -49.348 32.366
0 337.817 -50.2537 34.5415
0 338.986 -47.6618 34.1525
0 340.014 -38.202 26.1576
0 346.241 -23.556 25.9987
26 345.717 -108.402 78.5553
0 316.803 -79.2864 21.4428
0 321.711 -80.4537 28.4209
0 317.973 -76.6945 21.0537
0 319.988 -75.3973 25.1662
0 327.56 -67.494 26.4755
0 329.196 -67.8831 28.8015
0 328.729 -64.9021 26.0864
0 327.939 -65.8078 28.262
0 330.365 -65.2912 28.4124
0 330.278 -60.6239 27.4838
0 331.447 -58.0319 27.0947
0 339.398 -48.4423 30.1904
0 343.373 -43.6475 31.7383
0 345.712 -38.4636 30.9601
26 355.455 -35.7118 41.3499
26 359.269 -35.6027 42.5129
26 394.258 -0.32719 60.6846
0 320.385 -116.356 49.9116
0 320.163 -84.7319 27.0235
0 326.241 -83.3073 33.6125
0 320.724 -72.2911 16.3136
0 329.607 -68.6636 24.8395
0 331.243 -69.0527 27.1655
0 332.879 -69.4418 29.4915
0 339.424 -70.9983 38.7956
0 332.326 -61.7935 25.8478
0 359.537 -38.4702 40.7156
26 359.324 -36.42 37.8478
0 359.449 -33.8029 39.787
26 362.609 -34.1205 40.0508
0 322.684 -68.7935 13.7489
0 334.927 -70.6115 27.8556
26 359.663 -39.8882 40.9686
26 359.562 -38.1003 39.4121
26 366.369 -34.2006 41.1499
26 390.473 -9.39495 57.4554
26 326.798 -89.8101 27.8052
26 326.058 -86.9961 25.0205
26 329.715 -87.5735 29.5855
0 336.651 -75.6679 31.1102
26 370.102 -10.9783 22.7677
0 329.334 -117.662 46.9406
26 326.136 -93.1755 24.1204
26 327.512 -93.5718 26.2147
26 326.47 -91.3868 25.8718
26 329.627 -90.2509 24.1391
26 330.301 -91.3815 28.2654
26 329.161 -89.2122 27.7813
26 330.78 -89.769 30.1216
26 333.231 -89.1806 30.1562
26 330.313 -130.909 51.3642
26 330.969 -92.2846 24.687
26 333.383 -91.7802 24.8917
26 333.92 -92.9999 28.8169
26 335.667 -93.3456 31.3369
26 333.639 -90.0596 26.5869
26 335.008 -90.4423 28.7951
0 358.141 -52.3493 28.7499
26 335.916 -94.35 27.4611
26 342.928 -90.2424 33.047
26 344.945 -87.0084 33.2017
0 340.692 -75.8067 21.1611
26 351.844 -71.4094 30.8427
26 350.859 -69.7824 28.2289
26 316.211 -102.393 3.0398
0 337.919 -80.4763 13.4757
26 376.577 -41.4922 35.2524
0 382.58 -33.6957 35.9323
26 365.193 -69.4962 37.633
26 368.481 -67.6052 37.522
26 379.411 -42.6965 34.755
26 361.337 -91.026 40.3214
26 391.892 -35.3111 42.394
26 339.773 -72.0401 -4.01783
26 388.609 -21.9468 21.1952
26 344.733 -85.6553 4.23111
26 374.734 -115.066 57.9233
26 383.805 -21.1995 0.869972
26 365.475 -98.0915 26.5711
26 347.363 -122.165 3.26591
26 338.113 -122.28 -10.4936
26 409.51 -58.125 27.9123
