ITEM: TIME
40.0
ITEM: TIMESTEP
0
ITEM: NUMBER OF ATOMS
280
ITEM: BOX BOUNDS pp pp pp
-242.701 242.701
-242.701 242.701
-242.701 242.701
ITEM: ATOMS type x y z
26 64.4139 -14.3729 -53.0746
0 103.093 -19.7667 -42.079
26 101.338 -16.9612 -42.3282
0 101.033 -16.468 -40.9161
26 108.301 1.35478 -38.4304
0 80.277 -25.3636 -38.2755
26 102.381 -20.7717 -41.5885
26 104.996 -18.3753 -39.7628
0 104.23 -17.7303 -38.7571
26 103.748 -16.3968 -39.0874
26 103.877 -12.5573 -38.0785
26 105.253 -2.99382 -34.4288
26 110.151 0.723295 -35.8836
26 122.3 10.8668 -34.4917
0 79.9179 -24.7496 -33.5693
26 101.754 -19.6955 -37.8705
0 86.2348 -15.7199 -33.828
0 77.1791 -12.6993 -30.0992
26 101.355 -16.5114 -35.5603
26 102.398 -12.5121 -36.0727
26 273.56 -25.4666 -66.0419
26 125.29 9.84159 -33.7705
26 284.074 14.1128 -58.6605
0 84.6114 -24.5896 -32.7946
0 79.6859 -16.6881 -28.5124
0 76.9361 -16.116 -27.9216
26 76.2498 22.5049 -20.3865
0 72.5519 -35.8919 -29.1766
0 84.2414 -35.4538 -30.9677
0 82.3088 -24.7077 -29.454
0 88.4986 -23.1255 -30.0635
0 76.6931 -19.5327 -25.7439
0 83.5731 -15.2239 -25.7813
0 83.0099 -10.503 -26.0026
0 92.5238 -2.73557 -24.1023
0 96.77 -1.8854 -26.0773
0 93.214 -0.00905205 -23.5302
0 97.4602 0.841121 -25.5052
26 237.255 -24.8695 -54.0454
0 102.281 8.44856 -24.3797
26 236.613 5.12726 -44.8014
26 271.85 5.03125 -51.3394
0 99.967 -3.14773 -23.9184
26 95.2211 -12.0937 -23.2256
26 264.597 1.37906 -46.5826
26 51.3986 -32.58 -15.9741
0 58.2227 -12.8775 -13.5802
0 -0.329852 0.441383 0.78313
0 8.60982 1.45153 -0.417175
0 26.6162 10.9193 -2.46699
0 23.8663 11.4914 -1.87618
0 29.25 14.3779 -0.529318
26 248.566 4.99481 -40.8465
26 274.924 4.9785 -43.5795
26 67.2621 -24.5981 -15.8826
26 22.7304 23.2624 5.79417
26 71.0962 15.2824 -4.74374
26 173.845 -146.962 -60.9958
0 65.8811 -5.91837 -5.58949
0 32.32 5.6681 1.27887
0 45.3899 11.5592 0.631994
0 31.6408 14.4198 3.58603
26 23.7562 22.1366 9.11458
26 25.4596 25.5592 7.69517
26 23.0666 25.7181 6.9996
26 13.8989 27.5217 9.73079
0 274.222 -6.21366 -39.5458
26 66.7533 62.5504 9.15613
0 34.1476 10.4309 5.1729
26 28.9632 23.4487 9.91379
0 265.729 -7.91401 -35.5957
26 73.7541 -45.2733 -10.9595
26 107.23 -31.8452 -14.2468
26 8.26696 -5.56579 8.24232
0 266.176 -8.60421 -32.8459
26 74.6109 -27.4838 -3.39305
26 86.243 -21.2676 -3.77285
0 81.0878 -14.8804 -2.82262
26 85.9832 17.5341 5.97297
0 178.243 -143.62 -46.4432
26 193.788 -144.581 -49.9834
0 271.317 -9.13444 -29.3214
0 99.7236 -33.1662 -2.95371
26 55.689 -8.63546 8.81594
26 58.1146 18.1471 15.0627
0 52.3303 19.7463 18.035
26 268.103 -8.98561 -26.5782
26 204.292 47.4751 1.07152
26 180.4 -151.893 -42.1249
0 179.839 -130.796 -37.4922
26 84.2316 -37.2223 1.78201
26 83.2792 -33.6168 1.11604
0 107.167 -33.5783 -2.76977
26 95.1096 -1.76609 7.95758
0 59.7845 30.8124 21.0982
26 237.022 35.4472 -5.87973
0 179.712 -138.243 -37.843
26 51.3701 -49.2819 6.80379
0 100.734 -38.5773 0.0174064
0 63.5338 13.3509 20.5992
0 67.664 18.2318 21.1527
26 204.994 -108.76 -32.3458
26 155.301 -85.7011 -17.6147
0 64.6602 3.90899 21.0419
0 70.977 12.9387 20.7832
0 266.8 -9.44678 -15.1843
26 286.88 9.17316 -12.9842
26 179.178 -143.707 -32.2854
26 181.636 -142.576 -31.1034
26 230.378 -20.0622 -10.4062
0 72.1254 26.4533 26.9843
0 68.0062 33.0506 29.3102
26 91.2172 48.3601 31.8026
26 136.562 -177.585 -32.4764
26 182.483 -167.439 -35.1315
26 98.6731 -63.149 3.90523
0 110.314 -53.8425 3.6151
26 140.343 -49.1849 -0.852661
0 67.062 15.4291 28.0365
0 73.2628 28.4896 30.3063
26 189.173 -137.136 -26.4157
26 186.826 -134.175 -25.417
26 193.777 -77.4013 -10.5375
26 112.915 -42.7116 8.99808
26 82.1159 -26.6621 20.4067
26 230.304 -47.6796 -12.0931
26 270.753 -4.20033 -5.4777
26 186.565 -137.937 -23.2956
26 183.71 -132.587 -22.7784
0 145.598 -45.1572 6.04851
26 51.9413 -10.9938 32.0832
26 218.639 -39.525 -4.94347
0 69.9 14.7808 34.9016
0 173.455 -143.394 -20.1439
26 184.325 -137.849 -19.6967
26 151.673 -95.0717 -4.59886
0 144.538 -58.7479 7.30327
26 243.748 -68.357 -12.7708
26 5.19896 -16.759 39.8347
0 67.7134 10.632 35.7138
0 254.585 -24.2419 -1.93264
0 209.059 -50.9448 0.266693
26 240.562 1.0146 10.4575
26 240.92 3.39566 8.70142
26 198.948 -175.535 -27.1058
26 177.463 -162.143 -18.8541
26 164.165 -63.2424 8.93631
0 217.64 -49.3207 3.77254
0 209.39 -47.6043 5.54496
0 210.771 -42.1513 6.6892
26 40.79 35.6928 53.1192
0 254.812 -5.39241 8.75337
26 239.482 2.96967 11.2116
26 158.407 -171.938 -13.6221
26 219.576 -139.377 -15.3459
26 153.734 -78.8345 9.73361
26 131.649 -62.0294 16.8374
0 147.271 -43.8873 19.5762
0 213.393 -50.1709 5.74759
0 245.044 -28.0548 6.15149
26 268.681 16.6207 13.4424
0 186.255 -136.966 -8.62872
0 177.337 -115.019 -1.66987
26 112.006 -65.0325 22.2816
0 151.136 -65.3795 16.5487
26 158.899 -38.559 19.7736
0 259.124 -27.5749 8.47573
0 244.122 -22.7198 10.6363
26 68.1981 22.2827 51.2577
0 164.758 -75.6876 13.2439
0 159.142 -70.5126 16.954
0 159.833 -67.7861 17.5261
0 188.148 -63.3334 12.5409
26 154.202 -52.9415 22.1183
0 254.751 -35.8725 10.1
0 250.057 -36.0325 9.32524
0 250.748 -33.3059 9.89735
0 232.879 -23.848 15.1772
0 252.012 -23.8222 13.5701
0 251.449 -19.1012 13.3487
0 248.699 -18.5291 13.9395
0 247.893 -17.2249 15.8959
26 179.469 -149.251 -3.16557
0 159.59 -71.2028 19.7038
0 200.158 -71.033 13.1488
0 202.918 -60.127 15.4373
0 260.124 -44.4642 8.56757
0 251.195 -33.9962 12.6471
26 248.672 -7.54185 20.4493
26 183.079 -150.388 -1.84574
26 179.324 -145.664 -1.39932
0 195.05 -127.97 2.68387
0 190.357 -128.13 1.90912
0 185.547 -124.259 3.66285
0 183.488 -120.961 4.82578
26 181.159 -95.2499 10.8925
26 219.983 -78.7862 11.7661
26 149.274 -48.7498 30.0683
26 247.879 -45.2413 12.4538
0 260.571 -45.1544 11.3174
0 243.277 -28.9392 19.6978
0 241.355 -6.71489 24.0908
26 247.764 -167.426 -13.4869
26 185.176 -149.855 -0.559036
26 180.206 -150.545 1.04897
0 192.174 -134.845 2.92388
0 195.498 -128.66 5.43366
0 191.494 -126.094 5.23104
26 169.593 -80.3615 22.547
0 177.789 -77.3202 19.7022
0 165.984 -73.7275 24.0217
0 179.744 -65.1099 23.947
26 58.8974 8.66261 62.8995
0 245.794 -21.4499 24.164
0 187.8 -143.143 4.54813
0 187.684 -139.112 7.07661
0 201.444 -130.495 7.00184
0 178.214 -100.967 16.6934
0 178.799 -82.7314 22.6733
26 170.752 -82.3132 23.3031
0 179.49 -80.0049 23.2454
0 237.429 -15.7027 28.4649
26 236.417 -7.59535 29.9727
26 241.084 -5.08309 31.2371
26 116.33 51.7831 65.0214
0 182.759 -131.211 11.3588
0 208.208 -122.155 9.49294
26 222.86 -67.1391 21.0829
26 211.46 -43.9255 29.3049
0 194.205 -134.19 11.7454
26 235.243 -139.605 5.96224
0 200.395 -132.607 11.1359
0 193.526 -125.438 14.0525
0 176.922 -106.496 23.0051
0 189.302 -103.332 21.7861
0 178.993 -98.3165 24.7215
26 208.833 -91.4481 20.8398
26 285.145 -2.88978 32.2062
0 184.332 -141.343 14.5512
26 173.986 -129.616 21.4467
0 184.929 -111.629 23.4104
26 238.952 -103.363 15.9011
26 286.488 -60.8258 18.7189
26 266.786 -53.8627 23.8847
26 264.99 -14.7602 34.0034
26 207.314 -129.425 16.1202
26 208.967 -127.953 17.6717
26 250.172 -127.997 11.6069
0 185.376 -112.319 26.1602
26 255.252 -58.4984 27.6121
26 267.398 -53.3344 26.7789
0 245.143 -43.2544 35.2737
26 41.005 61.4335 96.2676
0 222.802 -145.398 16.2644
26 216.05 -129.791 22.0041
26 203.484 -140.266 25.9121
26 183.105 -151.715 29.3879
0 223.592 -131.27 27.1717
0 206.861 -119.775 35.7735
0 233.68 -116.745 32.1726
26 209.649 -109.75 35.5691
26 241.889 -145.256 25.1673
0 234.105 -140.392 29.1638
0 231.355 -139.819 29.7546
0 243.171 -131.934 28.3143
0 235.932 -135.629 33.0579
0 225.739 -134.644 33.4647
0 240.626 -135.469 33.8326
26 198.535 -204.902 27.0283
26 158.628 -139.268 50.0057
0 245.076 -138.725 36.785
0 239.577 -137.581 37.9666
26 233.033 -85.6651 51.2903
26 201.391 -150.193 43.2464
0 229.704 -144.735 40.7725
26 193.117 -94.8381 63.0796
26 191.283 -143.588 52.486
0 234.154 -147.991 43.7249
26 203.022 -137.306 62.7389
26 235.529 -159.588 72.069
