ITEM: TIME
40.0
ITEM: TIMESTEP
0
ITEM: NUMBER OF ATOMS
422
ITEM: BOX BOUNDS pp pp pp
-242.701 242.701
-242.701 242.701
-242.701 242.701
ITEM: ATOMS type x y z
26 -30.6817 7.89833 -31.0853
0 0.0183886 0.766718 0.885434
26 12.6278 10.6373 1.51472
26 4.25858 -5.61795 12.7036
0 6.25635 0.323184 1.03192
0 20.164 2.95418 7.24099
0 20.2793 1.6095 -1.73431
26 17.3455 4.23687 -13.2709
0 21.8263 3.78289 -4.79353
0 22.4024 3.52342 -1.99379
0 21.2832 3.2388 2.6236
0 24.5255 5.43733 -2.25327
26 50.8687 25.6035 19.2243
0 22.1228 -0.513605 -2.31041
0 23.6698 1.65979 -5.36963
0 24.2459 1.40031 -2.56989
0 26.369 3.31422 -2.82938
0 25.2498 3.0296 1.78802
26 25.2625 6.97135 -16.1769
26 42.7275 10.7264 3.39552
26 41.9212 12.0424 7.16687
0 53.6574 15.562 25.0563
26 62.0554 16.3522 52.1615
26 36.7351 4.37004 -5.68479
26 43.9038 9.28645 4.65302
26 8.35673 -28.8149 18.315
26 28.3407 -2.54459 -21.3514
26 55.7589 8.67356 39.4215
0 60.6197 12.7108 29.244
26 45.5861 1.38893 4.83122
0 59.5827 11.8851 14.6693
0 58.8584 14.2928 10.628
0 68.503 21.4295 15.1895
26 39.4317 -1.52334 -11.2103
0 57.6079 7.82291 16.1703
0 61.4263 9.76196 14.0932
0 62.0193 1.16896 19.0594
26 38.9335 -13.515 -14.9136
26 63.8589 5.79693 -2.93815
0 60.5545 -1.54552 2.92644
26 93.8306 12.0668 34.0581
26 90.6367 0.841988 36.6499
26 50.7524 -32.6644 18.2463
26 81.8754 -7.33698 31.7609
26 71.4034 -19.5284 7.27679
26 70.5506 -20.8324 8.8848
0 72.4551 -18.0366 -5.46418
26 70.913 -14.896 -18.0697
0 76.7013 -14.2088 -5.98315
0 76.553 -12.0605 -7.2247
26 113.913 18.21 -10.6187
0 76.9978 -18.5052 -3.50003
26 100.149 5.44222 -9.78276
26 132.593 31.5062 -13.1334
26 74.5313 -16.9311 -35.3872
0 87.3337 -12.9727 -5.11406
0 94.8882 -8.55351 9.92382
26 69.1471 -33.6272 2.72412
26 70.6233 -32.7931 4.1613
26 72.4948 -31.458 4.4438
26 120.776 30.3971 -61.6902
26 126.781 28.8765 -48.2598
0 103.364 -8.42781 0.835522
0 102.64 -6.02008 -3.20577
0 125.961 15.8365 -16.2769
0 131.754 21.8377 -19.8551
26 149.278 40.1525 -20.2374
26 153.689 40.6476 -11.532
0 109.454 -6.72309 -0.259544
0 108.73 -4.31536 -4.30083
26 134.279 18.2819 -9.60131
26 131.069 17.6346 -31.8959
0 107.989 -9.43758 -16.3925
0 120.876 -0.102359 -16.7078
26 132.311 19.4438 -48.8832
26 120.895 -12.9192 9.20634
0 128.991 -3.47258 -6.92058
0 127.114 -0.545894 -16.5613
0 131.509 1.13368 -15.8387
0 134.635 14.0765 -53.5327
26 142.597 14.437 -25.6797
0 130.834 -5.59569 -7.49668
0 137.45 4.98664 -18.1754
0 132.924 -2.8782 -17.973
0 133.5 -3.13768 -15.1733
26 117.206 -19.6057 -31.6865
0 135.344 -5.26079 -15.7494
0 143.705 -3.79041 -15.8624
0 142.981 -1.38268 -19.9037
0 145.071 1.33481 -30.38
0 149.169 7.31088 -32.1405
26 161.853 25.6075 -63.0813
26 132.411 -4.67803 -59.3118
0 144.824 -3.50579 -20.4798
0 153.284 4.95343 -31.7346
26 164.123 25.4408 -62.0489
0 142.24 -6.5049 -31.9953
0 162.649 8.0531 -27.4896
26 141.313 -21.7415 -0.129255
0 148.906 -5.05966 -30.2907
0 154.123 1.20103 -36.6686
0 162.764 6.70843 -36.4649
26 143.014 -21.7128 -1.858
26 146.766 -8.14213 -53.017
0 149.203 -9.35616 -27.8075
26 147.561 -10.6203 -52.3026
26 148.894 -8.23823 -49.7593
26 149.469 -8.4215 -55.8627
26 150.135 -6.83653 -51.837
0 155.44 -9.79969 -27.6611
0 180.16 16.3785 -45.033
0 180.193 15.575 -34.8161
26 149.359 -12.0355 -53.95
26 148.584 -9.66063 -54.0839
26 151.98 -8.1868 -55.5775
0 160.23 -5.42777 -35.5971
0 165.2 -4.00768 -32.0748
0 166.747 -1.83429 -35.134
0 183.008 15.8847 -41.2512
26 126.875 -35.6039 -45.3649
26 150.723 -13.9357 -54.4319
26 150.946 -12.0131 -55.9852
0 158.946 -11.0941 -40.2717
0 164.739 -5.09287 -43.8499
0 165.036 -9.38937 -41.3667
0 169.858 -5.82103 -39.086
0 167.883 -9.88319 -37.5849
0 177.347 0.205328 -44.4818
26 147.164 -36.6307 -23.2578
26 169.328 -21.4794 -8.06424
0 172.607 -13.3037 -24.1624
0 184.737 -0.757164 -38.7359
26 168.38 -24.7893 -6.49548
0 171.537 -13.3258 -48.954
0 184.671 0.84999 -59.1696
26 213.287 13.4391 -17.5233
26 244.264 17.4769 81.6257
26 196.56 -23.3045 50.1755
26 187.081 2.96457 -70.5545
26 224.614 6.06712 27.9731
0 182.285 -13.4345 -57.0602
26 187.522 -12.3677 -45.2815
26 186.964 -9.88463 -48.0959
0 177.365 -33.3912 -6.40682
0 173.941 -23.2384 -54.7807
0 189.133 -24.3406 -2.10476
0 181.332 -33.6004 -7.2424
0 175.784 -25.3615 -55.3568
0 195.074 -11.0881 -46.2338
0 200.49 -25.5123 2.80561
0 184.443 -37.5872 -11.1943
0 197.939 -29.315 1.50692
0 204.637 -28.6733 13.4284
0 213.13 -21.0177 12.3905
26 195.422 -34.4069 -2.15073
0 214.973 -23.1408 11.8144
0 205.575 -16.0373 -44.4397
0 210.249 -10.3207 -43.4005
26 203.028 -4.93137 -86.2372
26 191.793 -48.6409 13.348
0 209.871 -30.7462 9.21703
0 211.846 -26.684 7.71599
0 207.418 -18.1604 -45.0158
26 217.083 -14.2625 -32.7455
26 239.05 2.84964 -20.8982
26 249.1 11.5102 -17.0868
0 210.596 -33.1539 13.2583
0 209.838 -29.9426 -0.999833
0 216.142 -31.9933 19.5804
0 215.961 -29.0415 8.12196
0 216.537 -29.3009 10.9217
0 216.356 -26.3491 -0.536723
0 216.932 -26.6086 2.26301
0 218.479 -24.4352 -0.796205
0 219.055 -24.6947 2.00353
0 217.36 -24.7198 3.82119
0 218.512 -25.2388 9.42065
0 219.483 -22.8059 3.56171
0 224.059 -24.0782 15.7427
0 226.182 -22.1642 15.4832
26 233.29 3.64388 -46.7443
26 202.997 -45.0112 21.8242
26 192.896 -38.1852 -49.7177
0 217.986 -34.1164 19.0043
0 217.262 -31.7087 14.963
26 226.678 -35.9755 53.0252
0 210.743 -25.9026 -27.2925
0 214.776 -27.7189 -7.69437
0 218.776 -28.7317 1.68691
0 221.656 -30.0291 15.6856
0 212.866 -23.9887 -27.552
0 220.323 -26.5583 -1.37231
0 218.627 -26.5834 0.445352
0 220.899 -26.8178 1.42743
0 225.902 -26.2013 15.1666
0 212.504 -18.085 -50.4688
0 230.148 -22.3734 14.6476
0 232.699 -18.5708 15.9463
0 259.148 6.82905 6.97361
0 264.908 13.6338 -6.82143
26 188.641 -51.1519 -30.2902
0 217.344 -32.2498 -4.22918
0 232.206 -28.252 35.7468
0 234.543 -20.6939 15.3702
26 226.405 -13.0586 -35.1606
26 184.159 -51.5851 -45.4641
26 221.049 -54.7667 80.4057
26 199.504 -52.2067 -20.0545
26 197.85 -50.2673 -18.0954
0 214.694 -33.6417 -36.1785
26 223.879 -30.9368 -13.7547
26 224.378 -30.404 -20.7784
26 222.75 -30.319 -18.8895
26 225.453 -28.8672 -16.6922
26 223.284 -30.7253 -16.2201
0 234.922 -34.931 40.4536
0 238.016 -30.5843 34.3351
0 226.299 -48.772 42.4164
26 223.7 -34.9252 -13.5819
26 224.152 -35.1419 -10.9818
26 226.776 -33.5837 -8.69431
26 224.686 -35.3102 -8.35428
26 225.321 -32.8022 -16.7594
26 227.876 -31.1623 -14.4138
26 225.827 -33.0214 -14.058
26 228.356 -31.3912 -11.6417
26 226.302 -33.2441 -11.4034
26 228.823 -31.652 -8.89205
26 229.347 -31.8917 -6.0999
0 239.037 -37.2885 40.8595
0 221.03 -27.0964 -47.1738
26 228.709 -28.8001 -20.2379
26 226.773 -30.6156 -19.7773
26 229.892 -29.287 -14.7034
26 230.38 -29.5158 -11.9182
26 230.891 -29.7731 -9.15656
0 241.16 -35.3746 40.6001
26 230.296 -26.6824 -23.2876
26 228.296 -28.3532 -22.8895
26 230.872 -26.9709 -20.4114
26 231.909 -27.379 -14.9625
26 229.748 -26.2485 -25.9127
26 232.103 -26.4407 -24.9363
26 232.571 -26.8608 -22.1969
26 233.176 -27.0553 -19.4599
0 254.721 -9.91041 -9.84972
0 264.58 -6.52912 16.3871
26 220.943 -57.0296 41.9196
26 229.4 -35.7413 -6.20165
26 230.769 -33.6766 -9.29699
26 231.289 -33.9817 -6.58542
26 234.547 -32.7278 -1.56119
0 227.877 -28.603 -34.0107
26 231.857 -31.3225 -15.106
26 232.329 -31.5614 -12.356
26 234.863 -29.9213 -9.90545
26 232.864 -31.7986 -9.56749
26 233.344 -32.0483 -6.85367
26 236.047 -30.5194 -4.54877
26 233.91 -32.1966 -3.96874
26 233.3 -29.1709 -18.1866
26 233.918 -29.4001 -15.3551
26 234.389 -29.6348 -12.6278
26 236.621 -29.8252 -11.5812
26 235.51 -30.0986 -7.15149
26 233.834 -26.3767 -26.7507
26 234.357 -26.7767 -23.9436
26 234.86 -27.0388 -21.2148
26 237.38 -25.3764 -18.7665
26 235.682 -25.4226 -16.992
26 235.876 -27.5079 -15.6905
26 238.117 -27.7299 -14.741
26 237.751 -22.8434 -27.4431
26 236.032 -22.8951 -25.5835
26 238.063 -24.831 -26.0647
26 236.318 -24.9208 -24.2686
26 238.579 -25.1078 -23.3004
26 236.896 -25.1384 -21.5088
26 239.182 -25.2513 -20.4747
26 238.222 -23.7852 -14.5848
26 240.001 -22.8959 -26.3455
26 177.862 -74.2269 -40.5104
26 236.767 -31.9412 -10.3066
26 239.688 -25.6265 -17.885
26 241.841 -24.4291 -29.916
26 241.931 -24.8675 -27.0111
26 240.577 -23.2156 -23.5796
26 240.802 -25.303 -22.3399
26 244.398 -21.4023 -25.7173
26 244.347 -19.535 -29.7739
0 270.209 -5.9096 3.517
0 281.943 3.94457 -2.39781
26 245.503 -23.0477 -29.134
26 244.75 -23.4057 -24.4871
26 243.732 -21.5164 -33.402
26 246.729 -21.9065 -24.7749
26 248.964 -19.5748 -30.9012
0 279.392 0.141892 -3.6965
0 281.515 2.0558 -3.95598
0 230.314 -39.3191 -29.6205
26 247.135 -27.2414 -27.1834
26 246.607 -24.7761 -32.2137
26 248.189 -25.3305 -26.328
26 260.46 -26.5702 16.299
26 261.023 -26.8489 18.9799
26 263.689 -27.274 22.5689
26 248.543 -17.3035 -60.0661
26 264.65 -24.9398 16.6712
26 263.054 -24.8524 18.5357
26 263.432 -25.1153 21.2745
26 266.054 -22.7002 13.8561
0 265.798 -15.1191 -5.25596
0 268.678 -16.4165 8.7427
0 267.921 -13.2052 -5.51544
0 271.772 -12.0697 2.62427
26 249.445 -27.2052 -27.419
26 259.656 -30.2866 13.1451
26 262.286 -30.8834 16.7778
26 260.709 -30.8454 18.6664
26 261.347 -31.0265 21.3759
26 261.817 -31.0301 24.2162
26 261.175 -28.2751 10.1011
26 261.523 -28.528 12.818
26 262.168 -28.7667 15.5537
26 262.749 -28.9608 18.2454
26 263.337 -29.1407 20.9466
26 261.834 -29.0264 22.8421
26 263.038 -26.3039 9.67643
26 263.629 -26.5185 12.5785
26 264.194 -26.8931 15.1652
26 265.602 -24.5616 12.2459
26 266.319 -24.9842 14.8492
0 267.032 -16.1792 -18.8487
0 267.642 -17.2422 -5.83206
0 268.036 -14.5499 -14.4907
0 272.036 -15.5627 -5.10947
0 271.855 -12.6108 -16.5679
0 272.431 -12.8703 -13.7682
0 273.978 -10.6969 -16.8274
0 274.554 -10.9564 -14.0276
0 274.587 -11.76 -3.81078
0 278.257 -7.67267 -7.12948
26 258.944 -34.805 20.2118
26 262.72 -36.7177 24.0435
26 264.028 -33.0196 16.0952
26 262.349 -33.0591 17.9225
26 263.008 -33.0861 20.6022
26 264.858 -34.4382 20.6348
0 268.876 -18.3023 -19.4248
0 269.452 -18.5618 -16.625
0 270.637 -19.8843 -0.8087
0 270.456 -16.9325 -12.2671
0 273.303 -17.4263 -8.48531
0 273.879 -17.6858 -5.68557
0 272.76 -17.9704 -1.06818
0 271.394 -13.696 -28.3429
0 270.851 -14.2401 -20.9258
0 273.122 -14.4745 -19.9437
0 273.698 -14.7339 -17.144
0 274.274 -14.9934 -14.3443
0 272.579 -15.0186 -12.5266
0 274.85 -15.2529 -11.5445
0 273.155 -15.278 -9.72686
0 274.307 -15.797 -4.1274
0 272.398 -12.0667 -23.985
0 272.974 -12.3262 -21.1853
0 275.821 -12.82 -17.4035
0 274.126 -12.8452 -15.5858
0 275.854 -13.6236 -7.18661
0 276.43 -13.8831 -4.38688
0 279.673 -11.6845 -9.26375
26 264.408 -36.7248 20.277
26 264.29 -22.6038 -32.8509
0 266.325 -22.105 -20.7235
0 266.901 -22.3644 -17.9237
0 267.477 -22.6239 -15.124
0 261.535 -17.0773 -54.5797
0 266.72 -19.4126 -29.3821
0 267.296 -19.6721 -26.5824
0 270.143 -20.1659 -22.8006
0 270.719 -20.4254 -20.0009
0 271.296 -20.6849 -17.2011
0 269.419 -17.7582 -26.8419
0 271.723 -18.7961 -15.643
0 272.299 -19.0556 -12.8432
0 272.694 -16.3632 -21.5019
0 273.27 -16.6227 -18.7022
0 276.118 -17.1165 -14.9204
0 274.241 -14.1898 -24.5611
0 274.817 -14.4493 -21.7614
0 277.665 -14.9431 -17.9796
0 277.698 -15.7467 -7.76272
0 278.274 -16.0062 -4.96298
0 280.397 -14.0923 -5.22246
0 284.643 -10.2645 -5.74143
0 287.704 -5.1141 -22.0767
26 304.871 8.57437 -10.3539
0 270.621 -27.4142 -8.85906
0 276.233 -18.4612 -23.8957
0 274.538 -18.4863 -22.078
0 275.114 -18.7458 -19.2783
0 283.211 -13.7825 -11.6575
0 286.487 -12.3876 -6.31753
26 247.566 -35.9559 -54.2982
0 276.563 -23.5613 -11.1957
0 281.928 -19.4488 -16.332
0 267.363 -46.5423 29.7598
0 273.369 -25.4973 -35.7278
26 259.584 -57.5225 19.9875
0 274.391 -41.6011 12.5889
26 259.162 -59.3332 18.4891
26 253.555 -49.0996 -37.5404
26 292.05 -4.93639 -72.213
26 294.835 -32.1414 18.2015
26 261.394 -74.5028 53.3911
26 255.846 -76.5038 24.2313
26 261.908 -73.5845 15.0899
26 263.165 -69.1981 10.8311
26 272.512 -65.8461 32.13
26 280.738 -50.4419 -10.173
26 288.005 -72.4795 30.4189
26 267.435 -74.906 -44.1959
