ITEM: TIME
40.0
ITEM: TIMESTEP
0
ITEM: NUMBER OF ATOMS
384
ITEM: BOX BOUNDS pp pp pp
-242.701 242.701
-242.701 242.701
-242.701 242.701
ITEM: ATOMS type x y z
26 -15.7793 8.06701 -12.3393
26 -0.914879 5.46606 -18.8813
0 -0.359323 0.171483 -0.117068
0 3.14875 2.53473 -11.169
0 5.06546 0.20042 -3.2337
26 16.5154 17.3306 -31.3073
0 6.4638 1.22601 -1.45253
26 2.21444 16.3847 30.1741
26 15.1669 17.0877 -13.912
26 8.47483 -4.51773 17.582
0 33.6562 32.9492 -22.5598
26 44.8811 53.4942 -39.7677
26 27.2091 0.420624 -20.7702
26 13.1821 8.89474 42.0221
26 21.9574 16.256 15.7848
0 30.5425 24.3739 -8.23888
26 41.0543 40.8013 -27.0017
0 43.0401 45.5291 -32.5435
26 26.0096 -0.423282 -7.67217
0 33.565 16.1395 -11.6489
26 39.8398 30.2245 -16.5301
26 36.2648 36.9167 -7.30836
0 34.6363 9.82958 -11.1674
0 36.2378 15.3384 -10.9718
0 32.809 14.6062 -4.39065
0 35.6849 18.2885 -5.29913
0 29.5934 19.1686 19.7879
0 37.2417 22.5761 -12.4596
0 36.5649 22.6739 -9.67214
26 29.5673 25.5781 27.5517
26 39.9973 37.28 -5.53539
0 36.7562 11.9785 -4.81763
0 36.0793 12.0763 -2.03019
0 33.372 12.4675 9.11958
26 30.8256 23.8393 26.4369
26 29.5228 -36.8291 -21.9035
0 36.553 7.49527 -3.23206
0 35.8762 7.59306 -0.444619
0 38.7521 11.2753 -1.3531
0 38.1992 14.2253 4.31958
0 37.5224 14.3231 7.10702
0 33.6646 19.3932 22.2461
0 42.632 22.1952 -3.74935
0 39.2031 21.463 2.83181
0 41.0531 1.91755 -9.33173
26 58.2445 56.6896 -9.21373
26 52.0061 -24.3984 -74.3665
0 40.8374 13.0144 16.8235
0 41.6382 15.7688 16.9213
26 59.832 53.9274 -6.56593
26 51.6469 -42.7681 -79.8693
26 40.0448 -6.79404 11.4324
26 52.2785 -2.66113 -37.5436
0 47.0534 -15.7723 -23.5078
26 52.669 6.77814 -9.73997
26 48.0794 -18.6339 -16.361
0 54.5087 -16.0368 -34.9868
26 56.8245 -53.0392 -84.9023
26 53.7128 -9.8263 -12.4987
26 54.7619 26.4791 29.3857
26 62.9162 -31.6756 -62.7585
0 60.2385 -24.6623 -49.5466
26 54.193 -13.1181 -12.1778
0 65.5519 -43.0657 -80.1181
26 56.9322 -5.20038 -1.53569
26 69.5479 28.7094 -5.60195
0 68.4725 -38.1623 -73.6706
0 72.0253 -34.5779 -77.3665
0 71.3485 -34.4801 -74.579
0 72.95 -28.9712 -74.3834
0 72.2731 -28.8735 -71.596
0 71.5963 -28.7757 -68.8086
0 71.0434 -25.8256 -63.1359
0 77.2588 -23.8536 -85.3376
0 72.4763 -24.3902 -73.1816
0 68.6632 -18.0989 -50.6864
0 58.3296 -5.1253 5.4536
26 65.7911 -40.269 -56.5387
26 50.0423 -33.8981 19.2296
26 76.9162 -29.2244 -78.4794
26 78.3924 -26.6998 -81.1439
26 65.7447 -21.638 -31.3168
0 73.9867 -35.691 -62.0751
0 73.3099 -35.5932 -59.2876
26 78.9898 -29.7009 -81.1328
26 85.5181 -16.4899 -87.9858
26 77.0658 -48.8383 -77.8488
26 78.9993 -46.9524 -86.5453
26 80.0984 -45.6737 -83.0977
0 80.1228 -35.35 -79.806
26 73.4909 -29.4367 -46.9337
26 82.3098 -12.0817 -58.0802
26 63.2363 -26.5066 18.5221
26 64.0981 -14.8898 21.3104
0 68.3439 -8.23173 10.9494
0 69.7422 -7.20615 12.7306
0 69.1446 -5.4773 11.0472
0 68.4678 -5.37951 13.8346
26 72.1528 4.83873 14.4679
26 72.4584 7.44313 15.7767
26 95.3221 -17.1694 -60.4071
26 100.645 11.2405 -21.0848
26 91.2455 -22.3541 10.3704
26 89.9962 -20.5618 11.3937
0 93.2788 -11.0558 12.6702
0 94.0349 -9.5225 5.41195
0 99.1546 -0.839088 13.7385
0 98.0267 -10.929 12.341
26 103.235 -1.71754 5.03763
0 105.921 -16.1844 11.4871
26 107.104 -38.2729 13.9226
26 115.651 -22.133 17.8081
26 114.139 -17.9192 34.8888
0 117.378 -17.0441 26.1201
26 115.417 -16.9784 36.6193
0 120.84 -30.2694 33.335
0 125.521 -16.595 31.0366
0 137.057 -15.8236 41.1988
26 141.452 -34.9339 16.2788
26 139.808 -15.932 50.9752
26 138.592 -17.5935 54.2967
26 140.947 -14.4754 54.5472
26 141.654 -9.53797 54.5949
0 143.654 -4.48359 46.8357
0 145.708 -19.5458 33.0866
0 143.801 -16.4002 44.3341
26 144.643 0.80665 57.8725
26 147.886 16.5453 72.9412
0 147.027 -20.1512 39.3385
0 153.973 14.5143 59.0179
26 149.003 13.0058 71.7652
26 174.948 79.5368 55.9445
26 146.526 -49.3605 46.1919
0 154.899 -41.3966 25.7417
0 152.948 -39.4722 29.6333
0 167.101 19.9832 50.1928
0 164.349 19.1532 53.9865
0 169.379 25.3943 47.601
0 168.703 25.4921 50.3884
0 171.658 30.8054 45.0091
26 185.074 66.957 34.3922
0 161.204 -36.9822 18.2521
0 165.951 -6.09669 36.0525
0 172.052 24.5932 48.2781
0 171.375 24.691 51.0655
0 172.853 27.3477 48.3759
0 170.778 26.4199 49.3821
0 172.176 27.4455 51.1633
0 172.379 31.9287 49.5777
0 175.255 35.611 48.6692
26 158.788 -62.8759 11.963
0 161.474 -46.0466 18.6358
0 159.647 -41.2699 25.4126
26 169.94 4.47197 41.77
0 176.879 26.351 43.4781
0 164.226 -45.2166 14.8421
0 169.876 -24.7144 22.8827
26 172.084 2.42685 42.5794
0 174.195 11.9734 49.2411
0 175.796 17.4823 49.4366
0 173.845 19.4067 53.3282
0 176.123 24.8178 50.7363
26 186.884 58.8346 57.3565
26 169.127 -42.8513 16.5136
26 164.563 -42.2793 34.6888
0 171.567 -16.7632 37.7904
26 175.625 -0.883891 37.463
26 176.855 2.58544 42.1276
0 178.796 24.0167 51.4134
26 172.143 24.8649 81.5085
0 180.951 26.5756 45.9363
26 160.913 -138.467 -49.4684
26 160.49 -49.1846 54.7666
26 171.692 -42.2623 15.1852
26 167.243 -41.4248 32.155
0 171.793 -27.0487 30.8181
26 176.866 -1.25826 40.9737
26 184.205 -10.154 22.8802
0 183.217 16.8079 49.7846
0 189.725 25.7056 40.7093
0 190.345 39.9668 55.1355
26 173.31 -4.6687 81.3246
26 187.564 -3.99251 29.3458
26 195.599 42.4375 48.3883
26 183.949 -6.08995 53.0282
26 198.766 39.7495 48.5419
0 201.432 44.9178 35.4898
26 178.166 -37.3935 38.6659
26 167.124 -24.3055 97.6738
26 185.194 -22.7083 27.9733
26 199.527 41.2498 47.0109
26 200.084 53.8249 65.8507
26 198.427 54.8556 73.6256
26 196.396 53.9582 74.5743
26 180.677 -43.3372 58.6067
26 202.229 51.3594 76.115
26 181.96 -45.0354 57.56
26 194.478 -21.4702 66.381
0 220.242 56.9314 48.5015
26 202.035 -57.7805 17.8513
0 193.602 -53.6267 53.2999
26 186.948 -46.3097 89.0421
26 200.42 -20.6394 58.9988
0 195.554 -55.5512 49.4083
0 197.403 -44.3379 55.3744
0 198.204 -41.5834 55.4722
26 186.264 -114.299 29.1767
26 190.117 -55.9652 85.0303
0 203.381 -47.259 46.5851
26 204.068 -40.5801 45.8123
26 206.028 -38.4623 46.128
0 197.887 -48.1076 73.3554
26 196.22 -45.3315 91.4847
26 201.56 -121.813 11.0543
26 195.589 -117.242 39.7565
0 206.639 -64.9675 55.3856
0 207.542 -106.11 27.4962
0 214.365 -74.2963 44.2904
0 213.135 -71.2485 52.7505
0 216.294 -61.452 45.7856
26 219.747 -44.2276 58.5572
0 217.591 -78.0474 39.2948
0 216.237 -77.8518 44.8697
0 215.56 -77.754 47.6571
0 217.038 -75.0974 44.9675
0 216.361 -74.9996 47.7549
0 214.286 -75.9274 48.7612
0 215.087 -73.173 48.859
26 261.451 62.8443 26.5854
26 203.056 -131.502 45.8904
26 219.814 -103.813 5.90385
26 225.211 -93.9256 5.5322
0 214.229 -92.3272 47.8452
0 215.662 -90.8918 37.7995
0 216.384 -89.7684 42.3681
0 215.707 -89.6706 45.1556
0 215.03 -89.5728 47.943
0 217.184 -87.014 42.4659
0 218.109 -81.4073 45.449
0 215.357 -82.2373 49.2427
0 218.233 -78.5551 48.3342
26 218.008 -102.484 32.3029
0 215.977 -98.735 45.5393
0 216.056 -97.1039 41.0685
26 223.996 -95.2611 8.20196
0 219.733 -90.6673 40.2578
0 217.703 -90.3739 48.6201
0 219.18 -87.7172 45.9305
0 219.981 -84.9628 46.0283
0 218.03 -83.0384 49.9198
0 216.721 -81.6216 62.8507
0 221.662 -77.8229 41.753
0 220.985 -77.7251 44.5405
0 221.706 -76.6017 49.1091
0 221.03 -76.5039 51.8965
0 224.109 -68.3384 49.4025
0 224.909 -65.584 49.5003
0 225.71 -62.8296 49.5981
26 242.53 -47.0195 -7.89541
26 236.125 -36.321 38.6256
26 236.783 -34.8675 42.4439
26 237.77 -33.0975 40.6658
26 235.353 -33.1562 41.3115
26 220.54 -106.049 30.0256
26 219.286 -104.294 31.1996
0 216.146 -94.6615 55.7806
0 222.406 -91.4683 40.9349
0 219.654 -92.2983 44.7286
0 221.932 -86.8872 42.1367
0 220.703 -83.8394 50.5969
0 224.932 -80.3528 44.1135
0 225.733 -77.5984 44.2113
0 225.056 -77.5006 46.9987
0 224.379 -77.4028 49.7862
0 230.29 -66.7762 39.0276
0 228.259 -66.4828 47.3899
26 242.715 -26.8582 34.1392
0 216.969 -106.676 50.4916
0 226.33 -79.3272 45.8947
0 225.654 -79.2294 48.6821
0 224.977 -79.1316 51.4695
0 230.56 -75.8406 39.4113
0 229.33 -72.7928 47.8714
0 230.131 -70.0383 47.9692
0 229.454 -69.9405 50.7567
0 228.225 -66.8927 59.2168
0 230.334 -65.555 46.3836
0 229.657 -65.4572 49.1711
0 231.135 -62.8006 46.4814
0 230.458 -62.7028 49.2689
0 226.477 -91.2438 43.3931
0 229.68 -80.2261 43.7843
0 229.003 -80.1283 46.5718
0 229.928 -74.5216 49.5548
0 234.405 -65.3305 48.8419
26 247.204 -39.0552 25.8053
26 222.711 -148.612 5.22054
0 229.862 -122.492 11.3263
26 226.955 -122.791 21.7335
0 234.867 -54.3315 72.2097
26 228.176 -127.415 17.7806
26 224.44 -126.904 33.1386
26 225.818 -125.944 34.8709
26 242.464 -58.7635 45.3612
26 249 -30.2387 60.0828
26 248.274 -60.2818 43.9589
26 248.426 -58.1013 47.0517
26 249.768 -56.5344 43.6835
26 250.908 -55.0788 47.2114
0 253.263 -68.4871 25.457
26 250.598 -65.8153 44.7599
26 245.065 -65.2511 67.0144
26 250.762 -64.4787 40.3532
26 251.308 -65.1342 42.4867
26 252.34 -64.1168 44.4133
26 252.298 -62.0679 43.1473
26 249.002 -62.1585 45.3668
26 250.581 -61.6524 47.6103
0 253.702 -42.7193 54.2116
0 251.627 -74.4058 37.0883
0 257.21 -71.1148 25.03
26 245.585 -68.6124 67.1109
26 253.626 -62.1569 45.2803
26 257.185 -53.0972 48.6898
26 245.094 -140.812 -0.598112
26 254.543 -78.7341 29.1097
26 264.962 -73.9477 -0.270139
0 260.763 -67.5304 21.3341
26 259.16 -51.5178 48.6927
26 268.474 -26.5425 44.6553
26 257.431 -16.1193 94.801
26 249.02 -103.305 33.7034
26 261.823 -54.4227 48.0575
26 263.067 -52.476 48.3548
26 262.296 -53.2202 52.9431
26 264.103 -50.435 48.0051
26 263.42 -50.6976 50.2888
0 264.043 -38.4902 61.0071
26 275.296 -27.8405 28.6529
26 266.407 -53.9568 48.321
26 263.969 -54.9492 48.9982
26 265.591 -52.0304 47.3235
26 265.925 -49.8456 49.2145
26 266.499 -80.6181 25.3937
26 270.702 -46.5256 44.5007
26 271.154 -45.2653 46.4104
26 279.367 -24.983 42.784
26 276.835 -25.731 43.612
26 267.76 -82.3619 24.3486
0 267.145 -75.8523 34.9966
26 268.884 -59.6968 47.3316
26 271.899 -47.5996 46.3713
26 275.117 -43.3145 46.7283
26 278.753 -24.9906 45.0839
26 247.933 -113.112 84.049
26 260.924 -79.2494 76.4396
26 275.223 -46.6764 48.5777
26 273.969 -68.4598 43.6313
26 280.157 -113.402 -3.49251
0 287.376 -46.8231 62.5323
26 281.279 -74.1106 62.062
26 279.468 -66.098 79.7452
0 291.753 -55.253 53.5474
0 286.97 -55.7896 65.7034
0 287.771 -53.0352 65.8012
0 292 -49.5486 59.3179
0 294.279 -44.1375 56.726
26 288.153 -86.0416 40.3664
0 300.46 -42.5753 46.3511
0 295.722 -41.8907 65.8632
26 291.922 -95.4182 23.1913
0 296.545 -53.9051 60.5742
0 296.624 -52.2741 56.1034
0 294.594 -51.9807 64.4658
26 291.726 -48.5798 76.1953
26 287.929 -47.0932 92.1989
0 299.342 -51.854 64.1366
0 298.462 -56.2394 68.5096
26 309.289 -43.951 55.2035
26 310.646 -42.9242 56.8966
26 307.956 -72.8898 38.1271
26 305.355 -64.1425 85.9335
26 318.74 -62.1635 51.4183
26 330.055 -32.3061 84.203
