ITEM: TIME
40.0
ITEM: TIMESTEP
0
ITEM: NUMBER OF ATOMS
364
ITEM: BOX BOUNDS pp pp pp
-271.253 271.253
-271.253 271.253
-271.253 271.253
ITEM: ATOMS type x y z
26 14.7704 32.2911 -15.8503
26 -11.4793 -4.34058 6.20701
26 11.983 24.7279 -0.112668
0 0.138711 -0.111015 0.562413
0 4.79116 -0.633874 1.41981
26 9.05538 23.5682 14.7164
26 17.9521 23.8746 -1.88809
26 14.2138 -11.1684 -17.6542
26 50.3105 -7.54779 -77.279
26 21.1669 1.69747 -18.7449
26 28.8163 22.8661 -14.0141
26 22.576 23.2976 -1.02088
26 60.5676 22.9911 -68.7827
0 10.4904 -0.264132 4.34744
26 42.1068 13.9159 -33.6671
26 69.0948 18.7312 -76.2532
26 49.4319 23.1013 -38.5365
0 26.2489 8.26607 -6.30354
0 30.8693 14.1178 -6.18888
0 32.0766 18.4729 -7.68224
0 40.1668 -14.373 -40.3866
0 23.8343 -0.44394 -3.31682
0 28.535 7.13904 -4.98394
0 30.5162 13.5677 0.195566
0 30.5965 15.2989 -1.58623
0 43.3874 -9.964 -35.9578
0 27.0549 3.96507 1.11207
26 63.5907 2.72386 -58.5113
0 32.8023 12.4406 1.51516
26 49.4326 65.2743 13.134
0 47.3782 -17.2039 -42.8123
0 46.0586 -16.9155 -40.2799
0 45.866 -14.0033 -37.459
26 28.7411 -11.2472 -10.1067
26 72.2351 43.2286 -32.6387
0 39.7655 -23.029 -31.4777
0 48.1521 -15.1303 -36.1394
0 44.4662 -15.446 -33.1448
26 40.9671 -14.2857 -22.8752
0 29.4853 -8.18004 2.13534
26 58.1055 -1.28805 -43.1076
26 41.9604 3.31893 -8.17365
0 46.7523 -16.5731 -31.8252
26 46.7559 -2.38487 -18.0451
26 73.0993 0.798705 -57.4352
0 65.0056 2.39835 -47.2447
26 39.1809 13.0385 7.95192
26 25.4724 13.789 32.5292
0 48.1039 -23.2361 -33.6149
26 56.115 -18.8561 -40.5282
0 47.1411 -8.67497 -19.5106
26 67.9291 22.2053 -24.4308
0 57.2719 14.1814 4.30881
0 66.946 28.1663 -3.6281
26 78.0092 36.2021 -12.585
26 43.2177 -2.34228 17.5174
0 59.558 13.0543 5.62841
0 73.4958 18.6183 -13.7657
0 63.0193 22.6569 4.7119
0 69.2321 27.0393 -2.3085
0 63.4365 10.4578 -0.187067
0 63.1637 11.6389 4.41558
0 64.2907 14.2627 4.70401
0 70.7763 17.464 -6.91904
0 67.9446 20.953 0.966658
26 71.0035 33.9138 6.73389
26 56.6254 -14.1975 -0.0834268
0 55.4188 -17.7458 2.10024
26 63.8564 -15.4228 -9.464
26 79.7931 11.2162 -13.6019
26 54.1937 4.13694 29.0702
0 82.1104 -4.38288 4.72801
26 99.8374 11.0392 -4.85611
26 83.6953 -26.9691 -3.31142
26 100.553 -25.0147 -30.5786
0 93.0718 -19.6473 0.793213
0 94.2791 -15.2923 -0.70015
0 98.9315 -15.8152 0.157251
26 107.482 -3.22194 2.34256
26 80.6439 -30.1426 30.4609
0 104.246 -9.62098 8.72659
26 101.163 -19.8349 6.6567
0 110.683 -14.5255 -0.371937
0 115.384 -6.94256 -2.03907
26 110.286 -27.8654 -6.26816
26 104.502 -21.3369 7.64136
26 125.871 -3.67351 -6.80029
26 148.147 -7.89074 -14.3269
26 122.187 1.20764 33.7953
0 135.654 -9.53017 13.6972
0 139.147 -6.30219 13.5235
26 150.271 -4.69779 -2.87174
0 157.801 -14.0104 -3.52775
0 162.695 -9.33961 -8.01573
0 166.188 -6.11164 -8.1895
26 144.04 -12.572 30.7252
0 163.388 -8.99718 0.438938
26 176.904 -0.326835 -17.0992
26 192.989 35.9901 -17.0153
0 174.719 -9.23099 -13.1476
26 177.379 1.03758 -13.5814
26 176.526 1.80147 -11.6552
26 173.454 -15.577 -0.844241
0 174.867 -6.52649 4.5124
26 181.086 -7.19816 8.57264
26 187.619 -38.7717 -21.7975
26 177.413 -12.5967 13.8681
26 176.129 15.0779 39.3964
26 179.825 -14.9486 18.5844
0 186.654 2.11109 22.6822
0 196.425 -3.02789 16.9735
0 190.099 -2.76677 25.033
0 189.827 -1.58574 29.6356
0 192.386 -3.89381 26.3526
26 217.141 -1.00551 -3.29079
0 190.584 -13.9926 39.5758
0 196.556 -14.8039 37.9008
26 192.841 -9.18374 44.3204
0 203.186 -22.6207 25.9814
0 204.346 -26.3715 27.0126
26 216.163 -35.7754 3.33592
26 225.689 -18.8783 4.06791
0 207.71 -32.9806 31.1451
26 203.916 -47.945 32.6744
0 216.209 -29.7253 25.4443
26 192.305 -45.9876 59.5797
26 183.096 -52.289 89.4215
26 234.525 -37.1638 20.5677
26 253.89 -17.9827 6.39988
0 255.571 11.3185 26.6422
26 223.503 -40.411 44.2946
26 254.316 -18.4871 8.53192
0 250.405 7.82876 35.7328
0 236.72 -27.1193 35.8352
26 190.746 -60.6008 91.4022
26 206.447 -25.741 100.417
26 253.928 30.8958 61.8142
26 282.394 32.8692 18.8442
26 221.139 -9.82651 94.8761
0 260.207 -3.68486 30.7668
0 260.095 0.958575 31.8059
26 228.255 -22.7283 78.47
26 255.046 3.18951 53.4186
0 263.235 3.63638 38.0166
26 229.463 -24.7657 77.6737
26 227.413 -24.1638 76.8837
0 265.714 -0.402885 36.5153
0 264.394 -0.114454 39.0477
0 266.841 2.22092 36.8038
0 268.048 6.57592 35.3104
0 266.729 6.86435 37.8428
26 276.623 8.15831 23.3332
26 238.762 -27.2229 62.135
26 229.409 -25.1273 81.5723
0 257.664 -22.2319 38.0599
0 268.385 -7.35438 32.1932
26 214.294 -58.654 88.6884
26 260.397 -52.7212 12.0619
26 239.931 -32.1229 64.8451
26 241.046 -29.7109 65.4403
26 242.293 -30.1486 62.4854
26 239.79 -29.2887 67.6395
0 261.463 -26.5596 34.0262
0 257.504 -25.6943 41.6235
0 262.59 -23.9358 34.3146
0 258.631 -23.0705 41.9119
0 270.366 -0.925744 37.3727
26 248.194 -57.5198 32.2218
0 233.812 -46.9744 70.7363
0 229.548 -38.5535 82.1934
26 246.803 -32.6227 58.8649
0 256.489 -32.9616 40.296
26 243.383 -29.1745 64.807
0 259.982 -29.7336 40.1222
0 256.296 -30.0493 43.1168
0 257.343 -29.1567 45.1871
0 254.977 -29.7609 45.6493
0 251.018 -28.8956 53.2465
0 256.104 -27.1371 45.9377
0 261.19 -25.3786 38.6289
0 260.917 -24.1975 43.2315
0 259.597 -23.9091 45.7639
0 266.275 -23.6201 31.32
0 267.403 -20.9963 31.6085
0 265.81 -19.5268 38.7435
0 260.805 -19.5541 44.2706
0 260.612 -16.6419 47.0914
0 269.191 -11.6554 39.6088
0 226.119 -54.5307 83.8527
0 222.433 -54.8464 86.8473
0 227.518 -53.0879 79.5385
0 223.287 -51.0416 91.7384
0 228.645 -50.4641 79.8269
0 227.053 -48.9947 86.962
26 249.078 -33.1958 64.1361
26 250.401 -31.9044 60.6351
0 258.583 -31.1764 44.4364
0 257.263 -30.8879 46.9689
0 259.71 -28.5525 44.7249
0 258.39 -28.2641 47.2573
0 239.916 -24.2261 82.7112
0 263.476 -26.5056 39.9485
0 264.41 -20.9696 43.0577
0 262.898 -17.7689 48.411
0 261.579 -17.4805 50.9434
0 274.858 -4.91101 41.7937
0 276.066 -0.556002 40.3003
0 225.573 -52.1686 93.058
0 224.253 -51.8802 95.5904
0 229.339 -50.1217 88.2816
0 229.227 -45.4783 89.3206
0 257.022 -36.0815 52.3142
0 263.508 -32.8802 40.6912
0 279.234 -17.9754 29.2975
26 244.131 -12.3625 93.3937
26 256.329 0.0642206 82.8344
26 269.025 -62.4657 16.8683
0 234.152 -47.1822 85.5754
0 235.199 -46.2895 87.6456
0 232.833 -46.8937 88.1078
0 231.513 -46.6053 90.6402
26 303.188 -45.0618 -30.7903
26 278.962 -15.4691 36.3184
0 224.947 -51.5378 104.045
0 237.292 -44.5043 91.7861
0 242.378 -42.7458 84.4772
26 287.766 -13.1379 32.5404
26 200.528 -70.7833 139.648
26 252.095 -61.8406 55.9364
0 239.964 -51.4558 87.4639
0 237.405 -49.1478 90.747
26 287.567 -15.633 34.0043
26 290.124 -9.82409 34.5527
26 342.136 25.8795 -23.3796
26 203.525 -73.5164 139.219
26 230.199 -76.5225 89.273
0 237.437 -55.5224 91.4897
26 222.31 -42.9647 128.505
0 262.673 -43.8176 57.7664
0 263.8 -41.1938 58.0548
26 290.966 -15.0945 32.2026
26 294.13 -12.9396 31.6511
26 261.812 -6.03438 94.6284
26 327.385 5.34246 -14.0809
26 319.6 17.3654 14.6966
26 230.832 -63.1091 106.004
26 223.614 -59.7254 118.165
26 225.946 -57.4966 119.012
0 260.371 -57.1711 59.7141
0 242.911 -45.8658 96.4955
26 297.931 -13.0313 32.7613
26 294.774 -13.3457 34.0357
26 246.128 -89.427 64.8086
26 233.032 -62.3882 105.527
26 318.878 -42.2403 -26.1236
26 291.935 -29.4827 34.8434
26 301.835 -14.5139 31.7323
26 299.534 -15.3505 32.1265
26 209.73 -45.3988 171.681
26 269.065 -37.3236 72.5259
26 301.71 -18.2441 35.2281
26 304.292 -15.9419 33.0829
26 301.818 -16.3282 33.5219
26 300.463 -16.2832 36.0392
26 304.261 -13.9806 31.2731
26 310.599 23.2944 52.4223
26 245.949 -62.0704 95.9143
26 278.386 -34.8861 65.8465
26 289.82 -25.4873 56.0404
26 304.96 -16.8218 36.9276
26 308.642 -15.1519 32.1913
26 307.615 -13.1774 33.0202
0 214.285 -52.4774 168.533
26 326.388 -56.0792 -28.7562
0 303.96 -31.8962 30.7557
0 216.792 -76.6138 149.819
0 236.393 -78.028 114.653
0 217.919 -73.99 150.107
0 325.158 -21.0573 6.41147
26 313.162 27.7677 67.1065
0 217.017 -85.9007 147.74
0 215.119 -76.8756 158.735
0 216.519 -75.4328 154.421
26 236.548 -73.2513 123.217
26 237.515 -69.6988 127.465
0 221.027 -64.9376 155.575
0 330.937 -18.9564 7.55731
26 323.302 -18.1887 23.0726
0 222.684 -79.1563 149.925
0 218.998 -79.4721 152.92
0 217.678 -79.1836 155.452
0 218.805 -76.5598 155.741
26 237.45 -74.333 126.984
26 236.989 -74.5299 130.846
26 236.037 -72.1278 127.993
0 319.835 -14.2869 37.022
0 221.204 -82.3303 156.021
0 222.331 -79.7065 156.31
0 219.964 -80.3107 156.772
0 221.011 -79.4181 158.842
26 250.419 -72.0761 113.711
0 332.514 -34.9063 3.6895
0 333.997 -18.0098 15.5498
0 335.124 -15.386 15.8382
0 336.251 -12.7622 16.1266
0 334.932 -12.4737 18.6591
26 353.537 9.71925 3.93866
26 205.394 -82.7651 186.11
0 220.738 -78.237 163.445
0 213.482 -69.7894 186.351
26 265.118 -77.3722 88.8649
26 249.718 -73.8211 117.02
26 279.997 -66.2665 72.6061
0 329.409 -30.2362 16.1778
26 337.261 -26.2709 7.67006
0 329.024 -24.4117 21.8196
0 324.487 -14.8097 37.8794
0 328.254 -12.7628 33.103
0 330.427 -9.24638 35.4616
0 328.915 -6.04572 40.8149
0 223.137 -84.0075 163.725
26 222.747 -68.6746 177.182
26 337.115 -43.2439 -2.01689
0 336.123 -22.5992 20.433
0 326.774 -15.9368 39.199
0 339.777 -15.9088 16.6956
0 340.904 -13.285 16.984
0 339.584 -12.9966 19.5165
26 323.773 -3.31364 58.2735
26 322.545 -1.39996 59.0368
26 346.943 16.8978 33.6668
26 228.437 -77.4155 167.916
26 222.689 -72.0131 177.605
0 332.553 -13.8358 40.3448
26 355.802 -2.19979 6.44013
0 232.602 -81.5908 161.877
26 252.404 -84.7904 121.36
26 226.498 -78.3752 170.625
26 228.166 -75.0509 170.889
0 343.527 -28.3424 15.1865
0 327.194 -14.4133 52.2563
26 235.515 -64.8532 175.998
26 227.18 -61.1046 196.582
26 335.043 -38.4734 25.7829
26 367.791 -23.7322 -14.9891
0 352.331 -32.6427 5.62574
0 356.538 -0.869296 28.5957
26 373.597 9.37981 4.61051
26 251.4 -70.4228 159.618
26 337.332 -29.6117 43.8912
26 372.801 6.21269 14.3419
26 328.096 -69.0636 30.4804
26 339.374 -30.5441 44.5805
26 339.877 -30.8723 46.7632
26 224.847 -91.4672 202.921
26 236.701 -50.0891 223.852
26 332.443 -36.2126 73.0962
26 306.146 -66.6699 103.401
26 376.067 -7.20895 31.479
26 378.253 -35.6233 9.72437
26 355.711 -10.5104 70.0553
26 380.805 13.287 55.0931
26 379.822 -12.8047 38.8711
26 348.621 -38.6936 81.7119
