ITEM: TIME
40.0
ITEM: TIMESTEP
0
ITEM: NUMBER OF ATOMS
324
ITEM: BOX BOUNDS pp pp pp
-271.253 271.253
-271.253 271.253
-271.253 271.253
ITEM: ATOMS type x y z
26 130.768 127.438 54.4861
26 126.46 111.586 86.7836
26 109.923 100.39 28.8732
26 155.89 137.048 32.0563
0 1.56417 -0.410426 -1.93709
0 -0.391342 -0.285062 -0.407879
26 114.471 90.7828 71.6523
26 -3.19735 -7.43068 -15.48
26 137.665 110.312 79.7845
26 139.125 102.12 110.297
26 148.66 108.349 72.1137
0 149.614 111.179 59.7259
0 13.8627 -3.51839 4.6178
26 79.6454 56.4237 -37.3591
26 43.9692 17.5513 3.65673
0 123.665 85.2633 27.3204
26 12.4947 -12.0773 0.826364
26 118.724 74.6347 56.7451
26 151.209 101.066 45.0502
26 23.1575 -7.67275 3.45091
0 30.2558 -2.77048 5.31874
26 66.6461 26.7804 15.751
26 74.0222 37.3602 -8.03118
26 126.255 80.6408 13.5082
26 150.552 95.7719 93.1549
26 148.89 99.382 43.7036
26 154.05 101.234 16.1433
26 153.773 101.426 18.4156
26 31.7456 -5.11502 -14.241
0 129.913 78.4248 41.2584
0 151.346 95.1669 36.3183
26 151.937 99.7563 17.7591
26 162.822 103.731 38.2977
26 165.315 103.624 78.8726
26 163.26 105.671 77.7161
26 32.0844 -5.01628 -25.8625
26 33.6052 -5.21808 -15.6938
0 41.2521 1.00743 -26.7174
0 44.4427 4.5047 -8.11033
26 57.813 12.774 13.7172
26 81.6112 35.9414 -47.9391
26 83.7524 39.0617 -9.22
26 112.73 58.2211 56.0326
0 131.514 76.3671 35.394
0 135.872 80.102 35.273
26 161.871 99.7465 38.1077
26 164.64 102.998 42.1985
26 164.89 103.563 39.5663
0 56.1125 7.19804 18.7123
26 62.3762 17.897 -68.3646
26 101.173 43.5447 70.5503
0 132.721 74.4909 20.9302
0 133.51 74.128 38.1291
0 36.5279 -10.9407 -21.0054
26 52.5596 5.87803 -40.9246
0 61.282 9.23824 -4.47195
0 62.0707 8.87526 12.7269
26 128.456 67.2914 17.3767
0 135.11 72.0703 32.2647
0 139.245 73.8124 30.6749
26 144.152 73.526 106.095
26 49.8959 -2.30951 -22.126
0 58.3941 3.50617 -13.0819
0 61.8476 6.88245 11.2582
0 63.6319 8.93138 2.59828
0 134.835 65.9104 36.458
0 134.967 65.8499 39.3244
0 141.108 71.6337 30.5435
0 141.634 71.3917 42.0094
26 181.237 105.184 62.9513
26 28.6816 -25.7907 21.423
0 58.4736 -0.721435 -4.55336
0 62.6995 3.07395 -7.54084
26 70.6899 7.67708 46.7628
0 72.3343 10.1203 12.2826
26 120.223 48.0259 47.4634
26 161.963 85.482 18.3562
26 167.206 87.4269 82.9693
26 169.537 89.1794 83.097
26 167.502 89.3284 84.3827
26 171.88 91.0064 83.0685
0 62.7392 0.96015 -3.27659
26 63.3362 3.17502 -50.0997
0 66.6105 2.82322 -10.5993
26 105.418 42.3508 -84.0607
26 110.041 42.3666 -49.8731
26 129.44 62.4865 -61.8032
26 142.515 67.3516 -18.4873
26 166.768 83.4435 82.7558
26 169.008 85.0373 82.6844
26 167.03 85.3014 84.0365
26 169.337 86.9532 84.0466
26 171.294 86.8749 82.7022
26 173.641 88.8517 82.6436
26 171.681 88.5149 86.438
26 173.078 90.3838 86.4426
26 40.0149 -19.8306 -75.1005
0 64.603 -1.21852 -3.40804
26 101.407 25.0591 53.6331
26 101.541 26.9509 52.1927
26 168.155 80.9797 79.9368
26 170.78 82.8203 80.0634
26 168.661 83.1385 81.2522
26 173.049 84.4828 82.3248
26 170.937 84.9383 81.3281
26 175.143 85.3886 81.4118
26 173.208 86.7965 81.3696
26 69.7868 4.02258 -63.1274
26 75.0404 3.55002 2.71974
26 77.9527 4.2698 2.44779
26 92.9866 16.3615 -3.69985
26 98.9755 21.3306 -3.08689
26 146.96 59.5436 44.4215
0 149.838 64.4279 54.4183
26 169.411 78.8628 79.2824
26 170.191 80.5703 81.0151
0 69.3659 -5.27774 -25.2655
26 91.7213 11.5436 42.3193
26 125.386 35.7062 88.7875
26 123.478 35.912 90.3133
26 39.3031 -34.4587 0.681002
26 58.7093 -20.476 43.2527
0 76.1486 0.985679 -64.2405
26 79.5931 0.416565 -23.4827
26 79.8578 2.36389 -22.079
26 94.7901 15.9287 -95.7277
26 97.3523 21.0699 -79.0883
26 123.114 35.0658 21.2463
26 146.565 55.7796 42.849
0 154 57.7752 67.0191
26 170.195 73.562 50.103
0 77.2797 -3.72589 -32.7801
0 81.844 2.78389 -75.9589
0 82.6327 2.42091 -58.76
0 94.4104 6.38547 11.1914
26 98.3596 15.0253 -58.5834
26 128.91 32.962 62.5791
26 156.511 58.6425 6.60757
26 90.0402 1.62613 12.6511
0 90.2438 6.20755 -76.2718
0 90.7696 5.96557 -64.8059
0 96.951 9.63559 -69.3226
0 130.417 30.7709 86.2102
0 128.201 37.5306 -57.2349
0 134.606 43.1935 -60.2828
0 146.834 44.0807 67.0587
0 155.943 51.369 75.4161
26 155.726 53.5732 36.0497
0 164.132 59.0807 63.7082
0 77.5538 -11.4595 -57.3831
0 98.5519 7.57791 -75.187
0 106.475 8.89733 46.6135
26 119.955 24.5799 -38.4025
0 132.021 35.2266 -58.8955
0 131.981 37.3404 -63.1598
0 138.425 40.8894 -61.9435
0 157.15 49.4928 60.9523
26 154.946 53.8328 -59.5869
0 157.504 51.4251 65.2875
26 93.5293 -6.77991 13.9136
0 99.9816 7.69454 -88.1821
26 117.351 17.2936 15.4403
0 127.289 23.8281 31.6052
0 129.508 23.5818 35.8089
0 131.18 31.4225 -70.4324
0 133.845 35.1617 -63.2912
0 140.289 38.7108 -62.0749
0 150.562 39.7233 66.7958
0 148.606 39.8487 68.325
0 150.785 41.7161 68.2645
0 154.525 43.6397 58.0753
0 156.795 47.5605 56.6171
0 159.368 49.2464 65.156
0 79.2341 -17.7448 -54.719
0 83.4601 -13.9494 -57.7065
0 83.723 -14.0704 -51.9735
26 110.161 6.36579 1.8467
26 108.235 4.522 3.25094
26 108.859 6.1584 5.49641
0 131.391 27.1344 -59.0374
0 149.944 37.912 56.7276
0 152.031 37.7262 58.0649
0 150.076 37.8515 59.5941
0 152.294 37.6052 63.7978
0 150.47 37.67 68.1935
0 152.123 39.7795 56.6671
0 152.254 39.719 59.5336
0 152.649 39.5375 68.133
0 153.174 39.2955 79.599
0 154.564 41.5259 62.3396
0 157.309 41.0376 78.0093
0 157.006 43.2724 68.012
0 159.882 42.7235 86.5482
0 158.659 45.3818 56.4856
0 158.79 45.3213 59.3521
0 161.14 45.0144 66.4223
0 163.319 46.8819 66.3618
0 163.674 48.8142 70.697
0 85.547 -14.1353 -56.3692
0 92.78 -10.9492 -37.9541
26 103.236 2.20575 -107.885
0 109.007 -1.19645 30.4785
0 106.059 3.03035 -81.3748
26 107.695 2.0605 4.13909
0 111.711 0.42901 41.884
26 110.442 4.30777 6.12878
0 128.989 23.2741 -60.4456
0 147.885 29.7032 69.5808
0 141.798 34.5998 -66.5416
0 152.242 33.4381 69.4598
0 151.808 35.7333 56.5962
0 151.939 35.6728 59.4626
0 154.815 35.124 77.9988
0 155.942 37.4754 55.0064
0 153.987 37.6008 56.5357
0 154.118 37.5403 59.4021
0 156.205 37.3544 60.7394
0 154.512 37.3588 68.0016
0 156.297 39.4077 59.3416
0 156.428 39.3472 62.2081
0 160.523 43.2031 56.3542
0 183.138 59.4008 77.2123
0 81.1377 -22.0373 -50.5862
0 87.4108 -16.3139 -56.5007
26 98.2311 -8.4618 -50.5417
26 101.186 -10.1794 52.0813
26 100.404 -8.70451 -49.6916
26 104.403 -3.70048 -8.92368
0 108.298 -5.06107 21.8081
0 109.047 -3.31025 34.7428
0 111.225 -1.44281 34.6823
0 111.357 -1.5033 37.5488
0 107.752 3.02598 -88.6369
0 112.24 6.70037 -85.8915
0 126.647 9.45501 41.3895
0 153.672 33.5547 56.4647
0 154.855 33.0102 82.263
0 157.073 32.7639 86.4668
0 155.982 35.3616 59.2707
0 156.113 35.3011 62.1372
0 157.898 37.3501 53.4772
0 158.029 37.2896 56.3437
0 158.161 37.2291 59.2102
0 158.292 37.1686 62.0767
0 158.686 36.9871 70.6761
26 199.039 71.2043 60.2499
26 100.119 -12.4026 -52.5925
26 100.262 -10.4959 -51.1795
0 102.912 -9.64372 -41.2649
26 133.691 13.8139 54.0865
0 151.441 27.5201 62.1872
0 84.7338 -26.3341 -53.7156
0 84.8652 -26.3946 -50.8491
26 103.101 -8.441 -72.2234
0 108.285 -11.342 31.7344
0 110.464 -9.47454 31.6739
0 110.595 -9.53503 34.5404
0 110.727 -9.59553 37.4069
0 112.906 -7.72808 37.3464
26 111.613 -2.80168 -93.959
0 119.218 -4.11856 35.6962
0 121.66 -2.3721 41.3686
0 163.712 32.8069 54.5516
26 104.15 -11.5702 -85.0808
26 107.415 -10.6864 -85.4589
0 114.769 -9.90675 37.2149
0 121.174 -4.24392 34.1669
26 121.868 -0.470929 -65.0655
26 121.595 -0.345079 -61.1132
26 120.51 0.902876 -62.6511
26 132.059 1.12343 82.6896
0 115.733 -5.93068 -77.6968
26 115.841 -5.62259 -64.0426
26 119.457 -4.31138 -64.9977
26 120.112 -3.79769 -62.7552
0 119.433 -1.89331 -92.1502
26 119.578 -2.19398 -66.2837
0 122.137 -0.267849 -80.7448
0 133.596 6.71359 -65.3171
0 135.775 8.58104 -65.3776
26 98.686 -29.981 31.4726
26 118.758 -11.0889 -29.0687
0 134.668 -1.61545 56.5939
0 154.316 13.0778 60.3137
26 162.537 24.7836 -0.163282
26 196.215 47.2158 101.631
26 98.572 -36.4012 29.6008
26 98.4705 -34.2141 30.8329
26 100.883 -34.8536 33.7207
0 119.966 -16.2613 28.2211
26 98.9035 -39.142 30.1642
26 109.268 -24.1546 -87.0886
26 121.261 -15.5869 -76.6969
0 133.946 -11.761 57.8498
26 137.156 -0.919787 -73.4866
26 123.307 -13.6928 -75.3142
0 168.753 13.951 62.5439
26 135.902 -10.3657 -66.415
26 138.991 -8.51393 -66.4438
26 138.853 -9.18405 -63.6924
26 112.493 -44.84 34.4001
26 146.233 -7.8349 -33.152
26 163.199 2.5237 18.7135
26 187.182 21.896 19.4975
26 125.173 -31.9526 -29.7819
0 142.719 -14.5673 -53.2525
26 143.776 -14.8373 -48.215
26 186.561 15.2309 56.6557
26 175.937 2.92036 48.3093
26 169.442 -8.9035 61.3526
26 176.185 -7.66857 69.6787
26 150.644 -32.4287 56.597
26 156.436 -18.8979 -70.6303
26 171.171 -13.919 73.3276
26 174.213 -6.03664 17.1642
0 158.048 -19.6163 -65.5572
0 155.726 -27.7041 -58.4369
0 157.996 -23.7834 -59.8952
0 162.394 -22.1623 -55.7519
26 159.398 -29.0198 -33.3961
0 160.123 -26.0831 -54.2937
26 134.581 -61.5179 11.4897
26 183.831 -20.0267 -70.3007
26 98.5161 -128.546 -57.1272
