ITEM: TIME
40.0
ITEM: TIMESTEP
0
ITEM: NUMBER OF ATOMS
376
ITEM: BOX BOUNDS pp pp pp
-271.253 271.253
-271.253 271.253
-271.253 271.253
ITEM: ATOMS type x y z
26 12.1534 -10.0757 -42.3168
0 0.40201 0.685731 -0.222882
26 7.79991 12.239 -12.2928
26 18.7452 18.0065 -22.7176
0 10.4305 -5.42375 -0.512721
0 19.0838 -0.461236 -18.8728
26 22.0034 4.15693 -17.9324
26 25.0132 -9.25798 -23.9323
26 7.5685 -1.04774 17.5489
0 27.5667 2.69456 -26.3602
0 17.6475 -3.97619 5.52333
0 24.0159 2.49776 -2.96122
26 28.5021 14.781 -2.25149
26 33.9958 3.38728 -12.8458
0 36.8981 0.823954 -19.3271
0 36.1839 9.49856 -13.7297
26 40.9458 23.9133 -9.2362
26 43.9486 18.2098 -11.5024
26 40.9036 -38.565 -16.9488
0 46.1359 0.267858 -7.72052
0 49.9491 -6.07312 -12.1239
0 48.8536 -5.97466 -9.47292
0 48.8364 -1.53892 -11.1985
0 48.7426 -0.22441 -6.62499
0 50.8227 5.3289 -9.07905
0 51.4603 -6.46693 -8.37739
0 53.5232 3.52212 -12.557
0 51.3321 3.71906 -7.25502
26 49.1067 -14.385 1.08821
26 58.2573 -13.4289 -18.4363
0 57.735 1.32154 -12.2884
0 60.8512 -0.780573 -9.36889
26 58.4664 10.2246 3.24547
26 58.4798 12.3928 4.00649
0 67.0665 -0.549066 -5.25534
26 59.7506 -17.387 10.1675
26 75.1773 -2.92416 -19.6792
26 78.3502 -0.283869 -26.2323
0 69.0699 1.88302 -1.41034
26 79.4713 19.411 -12.5577
26 81.4968 -3.92585 -20.231
26 46.8323 -25.0219 63.6072
0 79.5907 -1.40056 -1.60172
26 64.7879 -16.781 36.3929
0 80.0064 -1.6959 4.79581
0 82.6132 -2.18817 5.89134
26 88.1005 -13.9559 23.4419
0 112.713 14.1818 13.0609
0 116.984 19.5381 5.30483
0 114.887 18.4206 6.03333
0 115.888 19.6366 7.95582
0 112.602 19.932 15.9088
0 118.461 28.0158 5.60023
26 130.95 34.7026 -21.2423
26 128.906 33.529 -20.5946
26 131.345 38.1228 -18.3073
26 102.423 -17.501 30.9241
0 112.016 18.4206 20.3838
0 113.655 7.84084 23.008
0 111.464 8.03777 28.31
0 115.735 13.3942 20.5539
0 114.13 15.1025 21.3809
0 114.622 17.9284 21.4794
0 109.401 -1.95127 32.4896
0 114.165 6.23099 24.832
0 106.988 9.74615 43.4875
26 138.712 49.2386 -16.2856
0 113.613 -4.15186 32.7582
0 117.281 4.12888 27.7516
0 120.949 12.4096 22.745
0 133.27 25.6529 -0.621631
0 113.536 -7.27308 39.0572
0 117.315 -4.74259 31.2027
0 116.22 -4.64412 33.8537
0 116.091 5.54186 34.9761
0 118.775 8.17081 29.7725
0 113.297 8.66315 43.0275
0 121.364 12.1143 29.1425
26 128.386 17.7728 16.9602
26 127.254 19.7524 20.1154
0 116.126 -3.32961 38.4272
0 122.987 5.97023 30.0411
0 119.7 6.26563 37.9941
0 122.858 16.1562 31.1635
26 126.333 18.1286 23.974
0 136.895 21.9409 4.12196
26 128.217 21.3321 18.6456
26 148.549 33.1493 -16.3667
26 151.04 48.6859 -15.8251
0 121.908 1.63296 34.4177
26 79.3456 -81.6174 103.784
0 135.154 12.971 19.2726
26 96.0925 -13.2306 109.771
26 126.948 -14.7961 39.3158
26 126.1 -12.8748 42.5855
26 123.647 -14.192 45.9126
26 127.013 -11.2998 41.0971
0 142.161 7.64916 11.4897
0 140.351 16.4222 19.7381
26 141.909 42.8786 27.8956
26 108.336 -54.2272 73.6471
26 126.334 -25.0583 45.7752
26 125.832 -14.5322 49.7106
26 150.803 3.03636 -1.89977
26 114.838 -55.245 68.6229
26 104.412 -34.7343 100.831
0 119.574 -29.7125 67.2446
26 126.162 -14.6234 56.1099
26 127.191 -13.6445 58.1612
26 130.425 0.878164 57.2924
26 143.852 3.28715 26.3665
26 121.356 -53.6824 58.096
26 131.305 2.02328 59.158
26 132.302 14.7711 66.8118
0 154.522 25.8551 12.8146
0 155.015 28.681 12.913
26 158.397 40.5564 13.3148
0 159.226 26.4804 13.1816
0 158.131 26.5789 15.8326
26 160.469 40.2528 12.45
26 110.784 -54.7842 99.5124
0 114.088 -50.0843 93.7009
0 161.944 20.2379 11.4292
0 160.228 27.6965 15.1041
0 159.039 29.1094 22.3286
0 157.34 32.1323 27.729
0 120.092 -56.6222 83.9955
0 118.394 -53.5994 89.396
26 122.388 -28.7867 86.1435
26 141.161 12.5966 64.5592
26 129.121 -56.7767 64.4074
0 121 -54.0916 90.4915
0 123.684 -51.4627 85.288
26 125.13 -42.2236 84.0889
26 127.625 -30.854 85.271
26 124.4 -32.4378 85.5717
26 125.142 -30.8364 87.3329
0 136.75 -16.6314 66.0886
26 133.353 -15.1325 80.8115
0 138.227 -8.15376 66.384
26 147.311 -18.576 53.5081
26 124.259 12.1363 116.654
0 143.933 -6.31241 68.6735
0 168.751 35.815 32.3081
26 173.878 10.026 15.9175
26 165.233 18.6082 38.4337
26 172.073 56.0454 39.2327
26 143.898 -29.0877 75.0258
26 157.616 -18.6577 43.6792
0 135.126 -17.5174 99.6317
26 135.195 -35.0716 101.097
26 147.61 -30.2212 73.4578
0 140.926 -16.9905 97.3477
26 153.236 -8.75618 71.812
26 173.04 22.4912 40.4823
0 138.641 -15.4791 107.223
26 150.709 -3.30981 89.1544
26 150.038 -2.84304 91.318
26 149.543 -1.19492 89.514
0 141.979 -29.0817 104.447
0 140.374 -27.3734 105.274
0 137.088 -27.078 113.227
0 136.883 -20.0132 120.648
0 142.853 -17.6797 107.492
0 144.423 -10.5165 103.214
0 144.586 -29.574 105.542
0 141.393 -30.5931 108.922
0 145.078 -26.7481 105.641
0 141.886 -27.7672 109.02
0 140.093 -23.4298 118.994
0 144.603 -34.0097 107.268
26 128.651 -29.0577 150.932
26 134.968 -27.0393 135.35
26 133.511 -23.628 136.518
0 146.572 -22.7061 107.662
26 145.192 5.29336 129.344
26 186.701 11.6886 29.6784
0 150.895 -30.657 105.082
0 147.498 -24.6113 115.883
26 134.32 -16.9996 148.833
26 133.509 -16.1107 150.895
26 189.866 14.0491 28.5399
26 133.903 -36.4703 148.723
0 193.561 50.0482 43.5856
26 147.879 -50.9495 116.145
0 154.521 -34.3689 109.826
0 154.504 -29.9332 108.1
0 154.996 -27.1073 108.199
26 193.459 46.1759 51.4482
0 159.811 -32.2322 105.718
26 167.999 -18.037 99.9793
26 205.441 85.4402 55.7029
26 165.121 -36.9121 105.891
26 171.27 -22.4045 100.041
0 205.974 54.947 50.0872
26 201.682 56.015 59.017
26 170.056 -32.0141 113.022
26 192.443 -6.17831 75.5067
26 155.173 -0.0293819 167.131
26 220.393 78.1747 45.0923
26 221.3 77.9552 47.2344
0 222.149 66.8119 47.0087
0 221.054 66.9104 49.6596
26 229.896 89.6795 42.3865
26 265.944 176.788 -3.43149
26 220.018 153.344 108.201
26 182.481 -43.6435 108.562
0 224.492 65.8275 63.5502
0 222.394 64.7099 64.2787
26 219.637 99.8251 96.0253
26 231.026 126.074 78.7935
26 179.139 -46.1181 134.235
26 231.727 53.9274 52.1749
0 229.213 62.017 65.6428
0 229.196 66.4528 63.9172
26 227.466 150.415 111.39
26 307.708 185.621 -67.3788
0 229.74 55.9715 69.1924
0 231.82 61.5248 66.7383
0 232.312 64.3507 66.8368
0 233.297 70.0024 67.0337
26 279.999 177.697 2.34485
26 188.409 -3.05297 150.704
26 236.802 48.0239 54.4875
26 256.688 92.9072 25.3624
26 288.73 108.506 -41.8283
0 233.459 50.945 69.3625
26 238.182 68.2744 69.8607
0 248.956 69.6431 40.8908
26 267.014 102.887 16.6532
0 249.77 73.4881 51.9603
26 245.856 73.7709 63.5735
26 276.182 139.741 20.7876
26 271.319 146.256 31.141
0 239.276 47.0361 68.8041
0 251.978 68.8555 48.3839
26 257.239 71.1517 38.965
0 252.471 71.6814 48.4823
26 247.803 74.9029 62.7782
26 252 85.2397 59.4812
0 243.82 119.687 94.3962
26 253.406 58.9772 51.7439
26 251.396 57.9331 52.4508
26 303.753 84.7292 -58.2275
0 243.837 115.251 96.1218
0 253 118.604 79.5858
0 296.87 140.492 -14.9638
0 292.869 149.462 -1.41345
26 281.682 172.16 29.7252
0 239.729 90.8376 106.207
0 246.174 100.433 91.423
0 247.762 103.16 88.8705
0 246.666 103.259 91.5215
26 277.385 105.307 22.4545
0 269.467 108.256 43.272
26 263.614 107.974 59.0085
26 262.015 112.569 62.096
0 253.527 112.558 83.1354
0 250.24 112.854 91.0884
0 249.145 112.952 93.7394
0 247.047 111.835 94.4679
26 265.287 113.339 55.966
0 250.732 115.68 91.1868
0 249.637 115.778 93.8378
0 248.541 115.877 96.4888
26 268.927 116.199 48.1056
0 248.032 117.487 94.6648
0 246.936 117.585 97.3158
0 297.396 134.447 -11.4142
0 296.301 134.545 -8.76325
0 299.57 138.685 -18.4418
0 296.283 138.981 -10.4888
0 291.79 145.125 2.9631
0 291.568 156.625 8.65896
0 294.158 160.569 8.02893
0 290.965 159.55 11.4084
0 247.702 95.6032 96.8951
0 249.179 104.081 97.1905
0 275.361 107.468 36.4145
0 274.265 107.566 39.0655
26 263.477 108.977 63.5453
0 251.353 108.32 90.1629
26 266.696 111.513 56.5238
26 265.975 109.678 57.968
26 265.492 110.244 63.0364
26 262.99 112.07 66.0055
0 252.847 112.362 92.1839
0 251.751 112.46 94.8349
26 264.69 111.511 61.1595
0 253.339 115.187 92.2824
0 251.242 114.07 93.0109
0 252.244 115.286 94.9334
0 251.148 115.384 97.5844
26 265.866 114.734 59.5588
0 249.543 117.093 98.4113
26 268.222 119.59 60.4051
26 265.171 118.213 62.606
26 271.514 127.227 52.6944
0 301.48 142.432 -10.0233
0 299.178 148.379 -1.87339
0 246.035 36.7863 78.1928
0 254.674 99.1528 85.6611
0 248.593 102.569 101.666
0 256.66 106.021 87.7805
0 254.469 106.218 93.0825
0 277.968 106.976 37.5101
0 276.872 107.074 40.1611
26 265.035 108.677 67.2319
0 254.961 109.043 93.181
26 265.645 111.61 67.2204
26 269.56 112.909 54.0872
26 268.169 113.627 59.279
26 266.088 112.839 62.9617
26 267.386 114.428 64.1479
26 266.542 111.516 64.9285
0 255.946 114.695 93.3779
26 268.428 116.057 62.5004
26 268.542 117.81 58.8474
0 280.318 126.855 40.8503
0 278.713 128.564 41.6773
26 272.741 130.195 54.9769
26 306.747 130.158 -18.7743
26 272.152 131.796 56.5086
26 305.24 131.858 -17.8973
0 300.894 140.921 -5.54828
0 299.704 142.334 1.6762
0 297.291 154.031 12.6741
0 296.196 154.13 15.325
26 291.434 157.542 26.4161
0 295.083 158.664 16.2505
26 269.854 87.1192 57.4863
0 253.9 100.27 99.2831
0 253.883 104.706 97.5575
26 266.133 110.002 69.1001
26 272.563 115.016 60.6877
26 272.697 116.807 57.1654
26 306.497 130.003 -14.6211
26 308.756 131.271 -19.7008
0 281.701 136.648 45.7192
0 305.199 137.406 -9.85321
26 256.855 40.3783 74.7324
26 280.579 93.4981 38.2188
0 284.481 98.8279 29.6287
0 258.587 105.331 97.9245
0 255.394 104.312 101.304
0 255.887 107.138 101.403
26 257.194 38.578 76.3237
26 260.369 57.5653 78.0289
0 256.541 90.9067 103.83
0 290.392 93.6045 24.4968
0 287.088 98.3356 30.7242
0 289.216 129.716 39.7604
26 256.136 139.172 122.863
26 268.385 30.0732 58.1038
26 253.188 77.5625 107.974
26 296.845 101.668 29.9121
0 268.487 109.408 98.7571
26 295.653 99.054 31.0801
26 318.332 115.964 -7.5566
26 333.116 157.936 -27.7741
26 291.092 81.7259 47.7327
0 324.588 106.72 -20.8992
26 295.004 108.796 46.7879
26 278.681 113.272 85.792
26 280.613 112.663 88.0852
26 324.455 165.641 4.03665
26 294.025 32.5672 26.0429
26 337.062 129.785 -34.5569
26 341.143 130.461 -32.7301
26 301.282 145.672 65.1574
26 321.07 107.897 4.83771
26 311.671 122.773 45.3635
26 284.063 101.291 108.692
26 332.84 104.746 -5.77999
26 363.937 135.382 -35.9754
26 375.051 139.576 -45.5677
