ITEM: TIME
40.0
ITEM: TIMESTEP
0
ITEM: NUMBER OF ATOMS
396
ITEM: BOX BOUNDS pp pp pp
-271.253 271.253
-271.253 271.253
-271.253 271.253
ITEM: ATOMS type x y z
26 186.177 123.527 -65.8508
26 -14.9723 5.65693 9.33832
26 59.4475 32.6208 11.6982
26 208.016 96.2616 33.7988
0 1.18279 -0.104225 0.511581
26 223.072 94.1281 -20.9278
26 255.623 111.445 98.7787
0 6.80012 -2.3034 2.1663
0 7.5883 -0.444288 0.716919
26 45.7713 14.9786 -9.96516
26 -4.41343 -11.8623 -21.6279
0 19.0007 -0.701985 -14.7208
26 43.203 13.7848 53.978
26 229.027 90.7247 15.0776
26 6.51991 -9.27374 8.7988
0 25.7502 1.10828 -1.62407
0 40.2149 6.47144 17.3837
0 50.2947 11.3445 31.9574
26 73.4447 22.2922 8.78238
26 230.81 90.0447 16.5004
26 250.218 98.174 9.02305
26 12.5664 -8.05294 5.9557
0 14.0941 -7.48304 -13.299
26 17.578 -7.44821 -28.3911
26 41.7892 5.12826 3.72634
0 46.5316 6.18962 20.4572
0 52.1375 10.6309 33.465
0 57.1444 10.7133 17.822
0 78.7256 19.5275 1.07903
26 221.661 83.8221 19.334
26 234.98 90.9481 58.2688
26 256.096 96.2026 -10.0165
26 11.7017 -10.1334 5.97661
0 19.8002 -9.74046 -14.5125
0 48.3744 5.47597 21.9648
0 58.2879 8.08225 17.9108
0 235.176 86.8043 26.1001
26 11.6433 -17.5583 -23.263
0 33.7434 -6.41114 -2.6598
26 36.5171 -5.07343 -43.4975
0 79.2586 14.9209 -3.11904
26 258.097 92.9998 29.6704
0 19.6339 -16.2644 -20.1293
0 20.1556 -14.2306 -12.9742
0 28.3151 -10.9689 -21.4039
26 45.8532 -3.99282 5.58106
0 53.6478 1.12647 10.7281
0 64.4384 5.53362 2.35665
26 79.8912 10.4706 18.455
26 134.736 34.8941 -32.5986
0 248.164 86.0076 20.7744
26 266.86 93.8349 80.7359
0 269.746 94.8219 4.0315
0 29.4586 -13.5999 -21.3151
26 42.2405 -8.79142 -19.6431
26 44.7577 -8.45446 6.40691
26 43.2646 -6.82138 6.93685
26 45.7092 -6.37684 5.52744
0 57.4223 -0.359062 10.8752
0 83.9989 10.9209 2.85321
26 240.846 77.4477 22.8603
26 239.674 79.4157 74.5285
26 241.85 79.4359 19.7858
0 254.481 85.7258 23.8479
0 30.9575 -16.4639 -32.6988
0 30.8687 -16.4056 -29.8307
0 34.8983 -15.6826 -13.9241
26 46.5954 -9.15548 5.20735
26 91.3493 11.2025 -14.154
26 109.533 19.358 -7.93993
26 116.852 20.6872 -13.8357
26 259.243 85.191 79.288
26 262.429 86.0714 47.0889
0 269.402 88.4145 4.15095
26 288.489 96.7804 5.31074
0 104.792 13.6189 0.570466
26 250.004 77.0362 74.8201
0 259.233 79.3425 5.45621
26 257.224 81.8765 79.1881
26 259.34 82.9492 79.1895
0 275.962 88.4674 60.3587
0 115.76 13.6525 -0.52648
0 121.2 15.8269 -6.14629
26 235.83 70.0921 78.9
26 248.485 73.1056 74.8322
26 251.241 74.3063 74.7316
26 249.309 75.0421 76.2172
26 252.231 76.0528 70.9704
26 250.25 76.8064 72.3018
0 269.556 84.5503 73.1642
0 132.778 17.836 -2.95632
0 132.69 17.8943 -0.0881675
0 133.3 19.8699 4.19875
26 250.535 72.2701 73.5123
26 253.261 73.4291 70.8661
26 251.361 74.198 72.2608
26 256.074 74.6508 70.7897
0 259.499 74.9106 9.86259
0 264.406 77.4345 21.4517
0 276.317 83.9773 61.897
0 281.49 86.3264 64.8816
26 77.2846 -10.5494 -9.83459
26 118.221 7.74734 7.41389
26 118.327 11.1204 7.60007
0 128.571 12.9723 -0.115803
26 140.281 18.7366 -2.10805
0 250.984 67.6248 42.7757
0 250.895 67.683 45.6439
26 253.568 69.145 72.0302
26 257.033 69.0513 35.0279
26 252.655 71.4369 72.2549
26 257.065 72.0962 70.5424
0 271.144 77.3709 71.9232
0 272.021 79.1718 67.6056
0 276.672 79.4872 63.4352
0 279.392 80.5744 60.6253
0 279.303 80.6326 63.4934
0 282.634 83.6954 64.9705
26 28.2237 -31.8538 9.78897
0 154.893 22.0437 -23.8973
0 154.804 22.102 -21.0292
0 157.346 23.3057 -18.1028
0 157.257 23.3639 -15.2346
26 176.544 29.8376 -2.18609
26 256.93 66.8275 33.7703
26 254.862 68.0945 35.0813
0 273.697 76.1914 50.4856
0 276.062 77.5116 59.1483
0 277.905 76.7979 60.6559
0 275.973 77.5698 62.0164
0 277.816 76.8562 63.5241
0 278.871 78.5405 53.4702
0 278.782 78.5988 56.3384
0 283.522 78.8559 49.2998
0 282.811 79.3218 72.245
26 34.8308 -35.9513 -35.8197
0 160.421 19.9028 -19.3745
0 168.225 23.3974 -16.3316
26 177.851 28.5251 -3.43691
26 179.68 29.686 -4.61632
26 227.376 51.4097 -19.315
0 276.506 72.9632 57.8184
0 276.417 73.0214 60.6865
0 274.13 74.0263 73.5196
0 279.137 74.1087 57.8766
0 277.205 74.8806 59.2371
0 279.048 74.1669 60.7448
0 278.959 74.2251 63.6129
26 44.5752 -31.4223 43.248
26 63.2944 -24.6943 -17.257
0 162.175 19.2474 -14.9987
0 169.801 22.8585 -6.21952
26 181.272 26.7096 -2.91949
26 179.528 27.2546 -4.23925
26 194.8 33.2692 0.755117
26 255.806 59.3199 34.282
0 275.896 70.9876 53.5314
0 278.704 72.0166 47.8534
0 283.7 74.4822 56.5743
26 298.058 79.3455 87.8588
26 3.44033 -52.6857 13.8636
26 155.547 13.6327 -30.2939
0 155.603 13.0635 -20.8209
0 157.268 12.4663 -13.577
0 162.53 14.7573 -13.4605
26 208.536 35.4719 8.45571
26 253.497 56.724 35.8756
26 279.889 68.1689 37.5993
26 280.504 70.1729 38.9699
0 279.492 69.6186 59.4148
0 281.946 70.8805 65.2094
0 284.843 71.8512 56.6632
26 319.986 83.5389 -25.7154
26 264.193 57.9883 -17.6716
26 277.075 60.0986 -31.0598
26 278.592 64.5771 34.4737
26 281.112 65.446 34.5228
26 278.412 64.5186 36.9956
26 281.161 65.7628 37.415
26 283.513 66.7056 37.5256
26 135.565 -1.25079 -1.7654
0 188.23 19.9792 -4.15412
26 267.835 54.1686 6.33488
26 282.273 63.0509 37.5173
26 284.843 64.1038 34.5747
0 288.795 65.9921 64.0848
0 257.768 49.5137 21.813
26 159.185 2.99619 -20.634
26 159.504 2.34227 -18.4302
0 224.276 29.8995 11.1215
0 253.472 44.7082 27.5217
0 253.294 44.8247 33.258
0 253.205 44.883 36.1261
0 260.754 46.1691 23.4095
26 296.712 59.534 -22.6138
26 296.876 62.5754 -22.412
26 307.622 69.9547 52.479
26 313.957 68.0287 -16.3321
26 134.106 -12.3665 -6.57442
26 147.16 -6.66002 8.73758
0 236.565 31.4427 -8.63373
0 250.752 39.3639 43.3424
0 253.738 40.2764 31.9281
0 253.649 40.3346 34.7962
0 256.369 41.4218 31.9863
26 310.912 67.8705 89.8945
0 257.602 38.7326 29.207
0 257.513 38.7908 32.0752
0 255.314 39.7375 42.0401
0 239.285 28.2728 1.56719
0 242.182 29.2435 -6.97901
0 244.813 30.389 -6.92077
0 267.249 41.5136 33.7575
0 276.208 44.2511 -0.485549
26 296.656 52.5068 5.71849
0 305.682 56.5018 -17.0538
26 224.475 17.7583 -1.36269
26 226.192 16.9038 -0.0672837
0 232.103 20.1133 -8.54191
26 243.238 28.8792 58.404
0 251.729 30.2089 37.8144
0 254.093 31.5291 46.4771
0 264.552 35.6598 -12.1605
0 274.987 40.2999 -9.05939
26 302.233 51.2242 31.2047
26 300.25 51.912 32.5151
26 369.627 78.4473 -50.6881
0 234.123 19.2832 -12.7706
0 239.474 21.5158 -15.5222
26 240.11 21.3405 -8.39785
0 256.114 30.699 42.2484
0 256.025 30.7572 45.1166
0 258.834 31.7862 39.4385
0 258.745 31.8445 42.3067
26 289.441 44.198 -0.688297
26 291.213 43.6324 0.955064
26 312.645 54.5247 -3.15591
0 319.714 55.5157 4.94158
26 374.35 80.2882 -11.7349
0 247.456 20.6369 -5.20484
0 253.417 24.8452 -3.66958
0 262.697 30.2424 36.7175
0 276.752 33.0041 -16.0368
0 279.028 34.3825 -4.50592
26 279.285 37.1599 30.6953
0 289.641 38.9061 -7.14109
26 292.474 41.0165 -1.71394
26 290.475 41.8529 -0.628128
26 292.51 41.3994 0.753152
26 242.349 16.7926 41.5204
26 240.53 17.6683 42.8449
0 255.159 22.3159 38.081
26 257.079 22.6317 -25.6213
0 258.946 22.7042 0.853286
0 256.037 24.1168 33.7635
0 257.79 23.4614 38.1392
0 272.723 28.0239 -18.9325
0 275.176 29.2858 -13.138
0 275.697 31.3197 -5.98293
0 280.171 31.7515 -4.41706
0 278.151 32.5816 -0.188388
26 294.242 40.4514 2.34313
26 309.657 44.6852 2.71046
26 143.681 -28.3857 17.8636
26 241.88 14.1872 42.7566
0 256.125 19.8014 43.9061
0 276.319 26.6548 -13.0491
26 293.521 35.4479 55.9667
26 292.854 36.9393 57.6384
26 338.84 54.1221 20.7476
26 370.704 69.2789 10.5795
0 258.957 16.0638 -10.4999
0 275.353 24.9122 -5.86347
0 285 27.6932 -1.31297
26 291.959 32.1976 18.2616
26 294.218 32.0065 19.6546
26 296.251 34.9077 21.147
26 337.376 53.4996 17.6778
26 272.69 18.7795 -15.1406
26 326.573 43.1013 -35.3815
0 332.015 46.1613 -13.156
0 331.748 46.336 -4.55151
0 344.204 50.146 -5.67906
26 358.729 55.2917 -21.9016
26 372.795 62.7513 -20.8586
0 279.661 18.8201 -9.91444
0 327.541 41.4723 -1.71099
0 337.543 44.0204 -8.63309
26 339.785 45.6569 -35.1644
0 342.894 46.2531 -11.3847
0 353.329 50.8932 -8.28363
26 355.341 52.1499 -20.4288
26 358.134 53.2531 -23.0639
26 356.192 54.0921 -21.7212
26 360.828 54.4002 -23.1736
0 369.826 57.3001 -30.8794
26 272.602 15.0356 39.4619
26 275.977 16.2713 37.5973
26 277.515 15.5758 41.7019
26 276.291 18.5648 43.2187
26 306.981 26.6283 -12.0874
0 317.805 34.4924 9.61748
0 317.716 34.5507 12.4856
0 322.279 34.9243 11.1833
0 333.591 41.3653 9.96694
0 354.473 48.2622 -8.19477
26 361.1 49.9503 -21.8882
26 359.082 50.6914 -20.6205
26 361.79 51.7762 -23.3763
0 372.357 56.6299 9.42182
26 276.599 14.7238 39.439
26 306.493 25.4013 27.6528
26 309.291 27.9208 -10.6728
0 318.948 31.8614 9.70633
0 318.682 32.0362 18.3108
0 326.231 33.3223 5.59414
0 324.21 34.1524 9.82282
0 342.627 42.1707 10.2305
26 269.287 8.74885 59.5793
26 305.622 21.4541 27.6587
26 308.035 23.8899 28.9722
26 307.709 22.4729 31.0454
0 320.092 29.2304 9.79518
0 332.547 33.0404 8.66763
0 359.823 46.2377 2.06439
0 370.525 50.7031 -3.43894
26 306.89 18.7171 33.2331
0 320.447 24.7403 11.3334
0 323.078 25.8858 11.3917
0 337.11 33.414 7.36535
0 339.652 34.6177 10.2917
0 342.283 35.7632 10.35
0 345.27 36.6757 -1.06437
0 345.181 36.7339 1.80378
0 349.566 37.224 6.23779
0 362.899 42.8349 0.792712
26 265.499 -2.24872 11.0264
0 324.654 25.3469 21.5037
0 332.814 28.6086 13.074
0 341.151 31.7538 -1.09201
0 345.625 32.1856 0.473859
0 343.604 33.0157 4.70254
0 372.812 45.4411 -3.26123
0 316.761 17.6533 34.3398
0 327.818 21.8858 17.3639
0 325.798 22.7159 21.5926
0 328.607 23.7449 15.9145
0 339.308 28.2103 10.4112
0 355.361 34.9083 2.15621
0 355.272 34.9666 5.02436
26 311.415 12.8357 52.2433
26 316.6 14.6604 49.4071
0 321.069 15.8183 17.278
26 318.802 17.4158 50.8757
0 324.488 18.8229 15.8869
0 345.103 25.8946 6.32962
0 358.258 31.6219 6.62083
26 371.457 38.1308 27.7938
26 391.254 44.6766 -4.17195
0 359.402 28.9909 6.70968
26 304.005 2.45333 52.2851
0 315.019 7.41116 31.6217
0 355.283 24.069 6.68205
26 300.416 0.952064 73.6616
0 313.786 5.84326 47.4119
0 313.697 5.9015 50.28
26 299.805 -7.06744 7.634
26 301.735 -6.13784 8.46458
26 321.497 3.21896 2.49668
0 363.532 23.0153 8.39501
26 401.255 37.7384 30.7944
26 362.473 16.4011 10.67
26 341.63 2.66059 14.5147
26 365.964 14.5102 27.9644
26 367.835 13.9959 29.5832
26 358.86 8.81498 39.4017
26 360.794 8.17454 40.7889
26 366.818 12.035 30.8422
26 369.781 13.1043 28.2142
26 373.319 14.0723 -11.9796
26 321.009 -11.749 37.06
26 358.015 6.8161 40.8838
26 359.95 6.20005 42.3775
26 362.73 7.29049 39.5485
26 368.846 11.1645 29.5866
26 371.684 12.3363 32.339
26 373.235 11.4479 33.9562
26 291.984 -28.3722 -30.8954
26 361.141 3.59712 39.8165
26 369.651 7.00807 31.3571
26 386.383 12.3727 2.95927
26 376.131 4.7082 45.7762
26 299.455 -33.6302 16.1651
26 380.126 -5.92713 6.02579
26 374.26 -16.5987 20.2802
26 348.953 -32.0092 -20.3093
