ITEM: TIME
40.0
ITEM: TIMESTEP
0
ITEM: NUMBER OF ATOMS
420
ITEM: BOX BOUNDS pp pp pp
-185.595 185.595
-185.595 185.595
-185.595 185.595
ITEM: ATOMS type x y z
26 32.1497 173.727 26.1131
26 34.5738 87.6281 75.3996
26 16.9373 84.3416 44.1521
26 14.3004 85.1646 42.685
26 49.974 134.512 45.6007
26 75.5614 144.886 71.6054
26 67.7779 136.408 54.6258
26 93.9259 154.831 66.1974
0 67.0861 102.697 56.2526
26 76.2649 123.162 56.3387
26 67.8167 133.514 39.0065
26 69.2659 137.112 37.3833
26 71.2164 138.376 40.5136
0 63.3657 91.3936 53.6669
0 66.9921 92.3705 60.1091
26 59.7721 97.8243 43.874
0 60.8721 103.396 43.0207
0 67.5207 102.006 52.2765
0 65.9526 112.68 46.106
0 71.6757 112.618 50.886
0 69.3902 115.966 45.9105
26 87.0125 111.555 70.8797
0 70.4289 118.619 45.5629
0 71.3544 117.291 50.0387
0 70.0329 106.621 47.6051
0 73.4512 116.252 48.3765
26 56.0308 85.8237 42.0283
26 57.5719 84.6849 40.8983
26 57.4477 84.0835 43.2769
0 74.4152 102.234 50.9184
0 75.454 104.887 50.5708
0 76.3794 103.558 55.0466
0 71.1849 113.255 42.434
0 71.2982 117.237 37.6105
0 72.2237 115.908 42.0864
0 73.2624 118.561 41.7388
0 86.0496 122.763 52.7654
26 51.4824 68.9722 36.4279
26 60.1315 82.718 43.0481
26 62.6885 83.3039 44.0814
0 73.1877 101.89 44.6283
0 84.3127 106.439 53.3409
26 95.79 105.874 64.6108
26 92.936 106.839 65.1076
26 67.1656 124.539 16.6224
0 84.52 120.747 44.661
0 83.3865 130.73 34.5144
26 62.6441 124.976 5.81765
0 81.6304 120.751 36.0569
0 -0.301744 0.647292 0.325291
26 52.6324 51.9833 35.0454
0 87.7882 119.998 36.8607
0 92.5666 127.61 38.1318
26 86.2817 98.6685 41.936
26 70.6962 121.965 12.9021
0 89.885 118.959 35.1985
26 95.2845 135.75 30.3606
26 67.6273 77.9051 28.9834
0 91.9818 117.921 33.5363
26 43.2045 66.945 -2.36061
26 98.0455 82.4285 58.449
0 12.7506 0.122165 -0.22899
0 21.1747 2.36572 6.51732
0 63.9732 56.5613 26.6372
26 59.9226 90.531 1.64024
26 81.4966 101.86 21.7826
26 97.1184 128.897 26.9993
26 100.092 129.219 24.8369
26 96.058 131.274 23.7458
26 98.238 132.279 26.4101
26 100.764 131.486 24.8036
26 99.4795 134.747 25.9624
26 107.648 103.3 51.3632
26 60.1686 116.94 -16.8886
26 102.519 132.029 23.2992
0 17.3595 3.69832 -6.5626
0 24.0082 2.3079 2.69322
0 99.1222 119.767 21.5643
26 34.0166 -8.73295 13.1912
26 33.3238 -9.62737 15.4928
26 28.272 7.54319 -3.90648
26 27.6174 6.53057 -1.82202
0 68.9035 55.4647 21.1509
26 34.448 -10.6158 11.8204
0 57.0803 37.2451 12.6662
0 73.3991 55.0592 19.6408
0 68.7147 57.7742 14.5132
0 78.4796 64.3428 22.7262
26 85.3105 -33.0266 88.6368
0 76.6294 44.0376 28.1252
0 66.1464 53.1055 6.7564
0 68.734 51.4293 13.5462
0 52.1324 25.5982 3.79037
0 60.9719 33.4955 7.52749
0 54.0019 39.5586 -2.57562
0 73.5317 52.696 13.8503
0 78.5182 51.6532 20.7922
0 79.9723 59.9599 17.4354
0 81.011 62.6129 17.0878
26 83.5403 93.5231 -0.459968
26 35.3593 -25.0395 5.49413
0 63.0687 32.4567 5.86528
0 60.7831 35.8049 0.889758
0 67.1104 39.0873 9.29828
0 69.5093 39.7206 9.45034
0 71.1714 39.373 11.7643
0 75.2131 46.0036 15.1973
0 80.615 50.6144 19.13
0 84.676 50.9001 21.596
0 86.6395 75.187 11.3735
26 125.788 67.4821 63.0752
0 94.8555 86.0848 12.4491
0 102.014 100.675 14.8392
0 66.9217 41.3967 2.66054
26 101.976 35.138 46.9254
0 72.9469 43.007 9.25479
0 77.7253 50.6185 10.5259
0 85.1106 50.209 17.6198
0 81.1629 53.9048 10.3303
0 82.8251 53.5572 12.6443
0 83.1271 55.2293 14.4586
0 98.4064 93.3528 7.43007
0 99.1238 100.679 6.23516
0 42.5394 -18.9857 2.20369
26 56.38 6.68677 1.91383
26 56.7865 7.99472 3.68371
26 57.5692 9.40655 5.29756
26 109.475 -0.735323 75.2854
0 59.0462 19.4813 1.4653
0 62.7859 24.4398 3.08402
0 66.5256 29.3982 4.70275
0 67.5643 32.0513 4.35513
0 69.0185 40.358 0.998332
0 86.4707 48.1893 18.1195
0 87.5095 50.8423 17.7719
26 88.1934 71.1806 3.42499
26 86.8559 73.1902 3.02826
0 48.3759 -15.066 2.1602
26 58.1466 5.50863 3.22279
26 58.7729 7.50786 2.34183
0 60.5196 21.4432 -2.85848
0 64.8827 23.401 1.42181
0 68.207 22.7058 6.04972
0 69.2458 25.3588 5.7021
0 83.487 37.8669 13.3719
0 89.3042 48.1315 14.2954
0 94.706 52.7423 18.2281
26 69.9616 7.8614 11.4759
26 65.4618 49.3936 -22.6627
0 96.4815 56.3763 15.7186
0 101.675 92.6038 -0.370198
0 47.3757 -30.4087 0.573848
0 97.2382 28.0501 26.9404
26 105.958 29.0502 36.3167
26 104.97 31.2752 33.3526
26 106.795 30.9403 35.165
26 105.053 31.8234 36.4682
26 106.644 30.8301 38.0527
26 107.387 32.6517 36.8991
26 108.112 35.0274 37.0987
26 95.2592 39.9451 18.424
0 104.094 40.9677 27.5163
26 99.2348 67.3568 7.41715
26 53.1004 -40.9991 8.08609
26 36.577 -27.1255 -18.8923
0 53.9296 -19.1632 -0.66455
0 101.206 -4.95292 47.6136
26 109.053 -5.60051 60.557
26 107.657 31.8867 33.2287
26 108.132 33.6091 34.9513
26 112.308 56.0241 24.7982
26 89.0444 68.9895 -12.6828
26 89.4026 71.0156 -13.6095
26 121.113 116.302 0.949486
0 56.0264 -20.202 -2.32676
26 92.0431 12.5476 23.9004
0 116.277 41.8249 34.9143
26 90.5418 74.3874 -19.2582
26 109.025 78.1827 0.384414
26 96.1396 87.1132 -22.8309
26 124.552 -18.8906 75.8571
26 99.4818 -10.3787 42.7459
26 89.6662 22.9907 5.60063
0 115.465 47.135 25.615
26 133.726 51.1747 46.0913
26 111.713 77.3817 -1.73309
26 110.945 77.4212 2.30381
26 113.063 85.4992 -2.5352
26 67.3818 -10.4188 -6.3779
0 117.564 -22.7907 67.0049
0 119.339 -19.1568 64.4954
26 123.953 -19.2856 72.8582
26 77.1721 -4.65456 6.24409
0 104.379 29.8963 14.9684
0 104.794 35.55 11.9592
26 133.299 -31.639 87.4419
26 126.92 -19.8049 70.5302
26 76.7071 -4.30653 -3.15548
0 111.557 -7.78348 45.093
0 100.13 8.95776 20.2153
0 103.567 12.2441 20.0198
26 127.694 60.4529 21.5441
0 116.885 -42.8062 66.2658
0 133.922 -40.6286 86.3962
26 59.3179 -21.5747 -20.9544
26 57.9855 -19.6471 -21.4125
0 107.628 12.5299 22.4858
26 131.536 83.3691 4.63843
26 78.4885 -55.7718 23.4803
26 50.4073 -39.4263 -23.5762
26 107.318 -32.9808 41.7008
26 101.119 -22.2831 27.2721
0 122.816 -28.5601 62.3659
0 128.746 -14.3139 58.4659
26 111.236 35.8493 3.74061
26 130.215 81.7127 1.48764
26 139.229 80.8399 14.6854
26 23.6441 -130.071 -7.94103
0 66.2276 -33.4127 -13.4191
26 139.171 -44.1573 86.5425
26 109.639 -32.3251 41.8658
0 141.232 -34.747 82.0289
0 121.38 -20.2493 50.405
0 113.805 5.43199 22.3226
26 117.588 6.31114 27.8089
26 119.16 -48.2883 61.7849
26 122.915 -48.1911 61.1334
0 140.004 -35.0905 75.7388
0 139.268 -36.0715 77.9007
0 129.615 -15.6963 50.5136
0 114.24 4.74083 18.3465
0 115.902 4.39323 20.6604
26 59.7965 -84.0895 1.44378
0 68.1357 -32.142 -21.719
26 133.215 -42.0476 66.5491
26 131.914 -26.0126 56.2035
0 128.275 -20.0214 49.0469
26 136.642 66.3716 4.39273
26 71.9074 -82.4978 8.20161
0 65.7561 -39.1202 -22.8381
26 150.648 -55.9372 90.9078
0 70.2325 -33.1808 -23.3812
0 71.1579 -34.5093 -18.9054
0 75.2189 -34.2236 -16.4394
26 78.1034 -21.8318 -19.4628
0 130.371 -21.0602 47.3847
0 132.034 -21.4078 49.6986
0 129.748 -18.0595 44.7231
0 124.043 -1.38015 24.6255
26 48.6006 -146.096 16.1404
26 58.4087 -55.5121 -28.0366
0 66.9274 -38.8304 -28.9761
0 67.9662 -36.1774 -29.3238
0 69.6283 -36.525 -27.0098
0 74.4068 -28.9135 -25.7387
0 134.338 -31.1008 53.7072
26 120.36 -5.41526 18.7417
0 132.676 -7.79091 37.0425
0 136 -8.48613 41.6704
0 126.14 -2.41891 22.9633
26 152.135 -9.15749 61.0332
26 134.562 76.0356 -16.6705
0 57.9021 -136.267 18.0518
0 59.5643 -136.615 20.3657
26 53.5559 -125.772 2.19081
0 67.6656 -83.7741 -2.43664
26 46.9814 -75.8762 -33.655
26 147.846 -39.7924 68.5915
26 101.034 -26.3649 2.70284
26 59.1832 -136.162 10.9119
0 62.6051 -122.365 7.86169
26 79.4276 -46.8092 -16.9144
26 138.294 -42.77 53.5824
26 122.461 13.8096 -0.483531
0 50.6687 -144.566 4.20043
0 51.7074 -141.913 3.85281
26 51.1692 -136.037 0.678426
0 64.4946 -137.712 14.8794
0 71.9732 -104.832 3.76617
26 65.7869 -90.1383 -14.4906
26 65.0947 -91.07 -12.4001
0 76.9582 -59.9505 -17.9934
26 66.2978 -35.5075 -46.7871
26 162.553 -46.5142 80.1832
26 82.132 -27.7984 -30.3369
0 132.733 -3.8631 19.7909
26 39.0652 -144.187 -16.7788
0 67.8375 -121.789 4.18965
0 65.5519 -118.441 -0.785875
0 65.854 -116.769 1.0284
0 74.07 -105.871 2.10396
26 136.605 -16.3927 24.9762
0 141.686 -14.9466 33.0553
26 135.358 1.90127 10.7748
0 64.6264 -117.113 -5.26172
26 141.286 -33.699 36.7848
26 137.775 -24.3808 26.4871
26 107.116 -6.60789 -24.5507
26 59.8697 -141.954 -2.03904
26 103.138 -21.1243 -22.8517
26 133.128 -28.0583 20.3127
26 116.99 45.6649 -45.9543
26 54.3259 -152.95 -6.90019
26 101.352 -79.8091 4.14142
26 81.3261 -52.5669 -36.8742
0 87.8583 -82.453 -14.9629
0 90.9746 -74.4939 -16.0058
0 91.3899 -68.8402 -19.0149
0 95.0163 -67.8633 -12.5728
26 108.042 -30.6314 -20.98
26 69.4979 -124.298 -14.4823
26 82.0881 -111.142 -8.0092
0 98.0578 -76.5755 -10.7261
26 116.862 -79.8743 15.2445
26 114.333 -71.2244 7.77194
26 113.042 -69.2667 7.27436
26 95.2663 -56.8664 -22.6868
0 108.86 -21.4291 -31.5621
26 85.5909 -13.8285 -61.7937
0 156.854 -22.8553 29.8718
26 73.2342 -147.148 -1.71313
0 98.7005 -85.9209 -9.03152
26 74.271 -75.6053 -45.1292
26 119.482 -40.8156 -11.0193
26 164.747 -32.8972 42.2485
0 90.9191 -97.51 -14.0832
0 91.1264 -83.202 -22.7632
0 98.5118 -83.6115 -15.6693
26 119.176 -42.3313 -12.8007
0 163.636 -26.609 33.3372
0 96.8689 -89.6087 -18.9502
0 113.168 -42.4874 -25.3593
0 167.093 -29.6675 32.1746
26 103.512 -131.187 9.21423
26 104.546 -95.4677 -11.8834
0 109.769 -58.4634 -27.0977
26 180.637 -59.9197 66.9054
26 115.621 -40.5797 -32.1127
26 115.092 -35.2137 -33.8162
26 161.973 -29.2193 19.1443
26 102.142 -98.448 -12.8369
26 103.289 -95.7084 -15.6403
0 108.126 -64.4606 -30.3787
0 105.103 -62.0933 -33.1923
26 115.855 -37.4107 -33.9527
0 178.974 -30.4824 37.7584
0 110.94 -58.1736 -33.2358
0 178.993 -36.8272 36.7914
0 109.505 -72.8252 -30.846
0 113.037 -59.2124 -34.898
26 91.0852 -52.5931 -67.9427
0 114.076 -56.5593 -35.2456
0 181.713 -40.8666 37.7908
26 172.889 -36.5022 26.1972
0 120.12 -61.294 -29.6184
0 121.159 -58.6409 -29.966
0 183.489 -37.2326 35.2813
26 123.572 41.6145 -93.2129
0 114.227 -65.2674 -42.0031
0 121.801 -67.9864 -28.2714
0 116.305 -59.9614 -42.6983
26 104.187 -54.6772 -62.5128
0 117.344 -57.3083 -43.0459
26 193.39 -48.2012 45.9489
0 191.195 -42.3149 43.2225
0 190.572 -39.3142 40.5609
26 122.012 -14.5341 -64.0133
26 111.479 -10.4822 -77.3072
0 116.74 -60.6525 -46.6745
0 118.402 -61.0001 -44.3605
0 120.064 -61.3477 -42.0465
0 118.1 -62.6722 -46.1748
0 123.823 -62.7341 -41.3948
0 121.557 -65.7307 -47.3373
0 122.595 -63.0777 -47.6849
0 118.95 -57.7097 -53.1601
0 123.313 -55.7519 -48.8798
0 124.975 -56.0995 -46.5659
26 131.773 -38.4349 -51.5039
26 144.303 -13.9008 -52.23
26 144.596 -68.7091 -18.9042
0 126.656 -62.7919 -45.2189
26 173.72 -59.211 10.5428
26 209.278 -38.1579 39.8519
26 108.489 -64.4288 -75.9673
26 128.252 -49.0499 -60.3654
26 129.131 -35.8904 -64.9879
26 192.033 -39.0077 17.3714
26 141.373 -9.76547 -64.771
26 132.07 -37.9775 -67.9701
26 130.429 -39.0196 -66.7938
26 129.506 -35.509 -69.7299
0 139.481 -25.3556 -64.8277
0 147.395 -16.1298 -65.5664
0 146.469 -14.8013 -70.0422
0 149.907 -11.5149 -70.2378
0 148.264 -17.5121 -73.5187
26 145.32 -75.2424 -43.6846
26 155.149 -61.0452 -41.5069
26 158.512 -32.0933 -66.3283
0 159.748 -7.36322 -80.2434
26 156.184 -23.602 -78.4585
26 156.87 -23.519 -76.274
0 156.745 -11.3407 -84.024
0 157.784 -8.68771 -84.3717
0 161.845 -8.40198 -81.9056
0 165.584 -3.44351 -80.2869
26 170.072 3.49487 -85.0056
26 170.977 7.01063 -86.1377
26 118.236 -83.0186 -99.208
0 165.415 -7.47886 -87.8916
0 166.454 -4.82582 -88.2392
26 168.622 -48.8435 -61.6981
26 149.593 -35.9791 -98.6016
0 169.911 -7.88429 -89.4018
26 167.449 -116.128 -45.9778
26 204.761 8.05049 -82.7152
26 187.83 -35.435 -80.5754
26 163.261 -25.0807 -116.528
26 183.181 -15.7468 -103.678
