ITEM: TIME
40.0
ITEM: TIMESTEP
0
ITEM: NUMBER OF ATOMS
326
ITEM: BOX BOUNDS pp pp pp
-185.595 185.595
-185.595 185.595
-185.595 185.595
ITEM: ATOMS type x y z
26 9.10556 6.23588 -14.7428
26 10.0584 5.40337 -12.8079
0 3.96838 7.58294 -3.23394
0 1.13617 10.2548 -0.496195
0 0.610783 0.964543 -2.50505
0 5.80752 6.21807 -1.5039
0 2.97531 8.88994 1.23384
26 59.5062 24.2437 -31.2359
26 92.9303 43.7852 -50.3129
26 54.2665 19.5234 -22.3004
26 0.172574 59.0126 61.5426
26 1.70169 -0.900545 24.6531
26 40.3467 10.8608 -7.11701
26 15.7241 0.98158 18.4375
26 42.727 -2.45829 -14.2372
26 96.5878 75.4393 -11.209
26 31.7324 -8.71088 -2.81048
26 31.1038 -2.82133 -1.06659
26 109.217 27.5776 -55.3138
26 108.164 28.5591 -58.1478
26 8.55727 -9.00408 25.2688
0 39.5577 -3.45856 -4.54014
26 15.1992 24.2023 44.2716
0 38.6738 -3.01503 3.8924
0 45.2288 -2.04456 -2.31035
26 17.7931 -9.42446 27.081
0 47.0679 -3.40943 -0.58031
0 45.8121 -6.74757 2.88305
0 104.903 -12.3923 -64.3875
0 53.4693 -7.94757 -3.82273
0 108.376 0.120355 -53.4463
26 108.604 18.4086 -41.6901
0 47.3952 -5.99984 11.3139
26 84.9601 -0.00527951 -26.3951
0 107.748 -1.54871 -51.7146
0 35.394 -3.35351 30.9217
0 51.5923 -6.19704 9.07759
26 24.0364 7.84282 51.8161
26 91.9413 4.8646 -23.9077
0 29.3066 -14.9212 30.6478
26 54.0411 -12.4819 5.07204
0 112.618 -27.5856 -67.9087
0 116.252 -2.80659 -52.2226
0 113.003 -10.2885 -47.529
0 111.273 -9.78705 -45.2942
0 30.627 -18.8186 38.0743
0 36.4516 -11.8961 37.3437
0 41.2766 -10.4242 33.3757
0 38.8095 -10.7284 33.3773
0 42.6414 -7.94952 33.8771
0 121.025 -14.4645 -56.9708
0 124.755 -4.06446 -52.7306
0 120.302 -1.75466 -43.7933
26 81.5827 7.76644 2.45626
0 40.6487 -12.0933 35.1074
0 120.142 -14.021 -48.5383
26 62.1383 3.56619 27.0177
0 121.506 -11.5463 -48.0369
26 147.229 -17.3661 -81.2019
0 114.221 -6.56466 -36.362
0 130.426 -2.65047 -50.5008
0 120.046 0.357932 -37.0925
0 121.41 2.8326 -36.5911
26 178.451 54.5209 -60.1602
0 43.59 -15.6286 36.3344
0 39.3929 -15.4314 38.5707
26 132.296 -38.4764 -79.7112
0 116.054 -14.6873 -42.3372
0 116.791 -13.8817 -40.1041
0 114.323 -14.1859 -40.1025
0 112.593 -13.6845 -37.8678
0 121.615 -12.4098 -44.0722
0 119.885 -11.9084 -41.8374
0 118.155 -11.407 -39.6027
0 115.688 -11.7112 -39.6011
0 122.98 -9.93513 -43.5708
0 118.783 -9.73793 -41.3344
0 117.79 -8.43093 -36.8666
0 116.06 -7.92953 -34.6319
0 120.885 -6.45767 -38.5999
0 124.973 -5.7914 -44.8011
0 123.243 -5.29 -42.5663
0 123.25 1.46773 -34.8611
0 121.52 1.96913 -32.6263
0 125.979 6.41706 -33.8583
0 42.6994 -21.9428 37.0616
0 41.2321 -16.7963 40.3008
0 115.996 -34.5748 -50.8227
0 116.259 -29.9297 -49.8183
26 68.6387 -15.2033 15.9824
26 52.8258 -2.05363 38.5198
0 117.893 -16.0521 -40.6072
0 116.163 -15.5507 -38.3724
0 114.433 -15.0493 -36.1377
0 125.185 -14.2761 -44.5768
0 122.718 -14.5803 -44.5752
0 120.988 -14.0789 -42.3405
0 121.725 -13.2733 -40.1074
0 119.258 -13.5775 -40.1058
0 122.352 -11.6042 -41.8391
0 119.629 -9.7958 -35.1366
0 122.724 -7.82254 -36.8699
0 130.279 -1.40134 -39.8352
26 114.738 2.84953 -18.7201
26 132.973 3.30108 -37.7795
0 147.292 36.7214 -27.8448
0 106.083 -42.1637 -43.8911
0 110.812 -26.3129 -36.4133
0 119.834 -25.0382 -42.6177
0 118.104 -24.5368 -40.3829
0 115.272 -21.8649 -37.6452
26 73.7316 -3.34786 24.6678
0 131.112 -14.9747 -49.0479
0 133.214 -11.6944 -46.3134
0 120.366 -8.99021 -32.9035
0 125.198 -0.760612 -29.1663
0 127.191 3.38312 -30.3965
26 134.779 3.94506 -36.5697
0 147.029 32.0763 -28.8492
0 166.431 30.3426 -48.4619
0 143.204 36.0552 -21.6437
0 148.035 44.2848 -17.9065
0 110.46 -9.82134 -18.2666
0 139.878 -11.5874 -48.5514
0 132.957 -9.58181 -39.6126
26 112.195 3.36757 -9.67734
0 123.84 3.52245 -21.9624
0 145.145 27.0691 -23.6542
0 154.065 35.965 -26.1181
0 147.145 37.9706 -17.1792
26 64.244 -21.324 28.6985
0 130.241 -1.01569 -25.2048
0 130.78 21.79 -7.78536
0 149.342 26.8719 -25.8906
0 157.269 37.0748 -23.8866
26 160.306 53.1522 -12.9733
0 130.811 -19.2341 -35.422
26 101.492 -11.5613 1.83626
26 158.673 51.9595 -12.1387
26 161.209 51.9582 -10.6092
26 37.3895 -39.5878 52.76
0 112.518 -12.9132 -8.60705
0 119.349 6.2179 1.60521
26 142.86 1.82785 -28.1082
26 148.545 3.0561 -29.7494
26 144.395 4.35561 -27.4269
26 142.377 4.53997 -25.1999
26 144.657 7.54553 -24.83
26 147.023 8.7928 -24.7272
26 161.113 53.1558 -6.84381
26 204.094 43.0229 -61.8305
0 138.116 -3.94263 -23.9811
26 150.552 -1.24043 -30.7877
26 148.102 -0.730597 -30.7535
26 145.645 -0.737327 -30.8339
26 148.676 1.84285 -32.1388
26 150.119 1.71833 -28.0332
26 146.988 1.41341 -30.1962
26 145.295 2.14273 -28.0428
26 151.566 4.0064 -27.5888
26 149.211 3.83396 -27.5509
26 149.684 4.65895 -25.2843
26 146.941 4.57257 -27.5896
26 150.696 6.99253 -24.9912
26 148.274 6.75442 -24.8958
26 152.005 9.44045 -24.6375
26 149.526 9.1194 -24.5258
26 147.701 9.65763 -22.4059
26 150.775 11.5875 -24.1523
26 151.619 12.399 -22.0059
26 179.406 18.4313 -46.9785
0 165.516 37.9295 -17.6937
26 162.707 53.9165 -3.12382
26 163.396 54.7707 -1.00259
26 69.9042 -33.0746 30.27
26 151.864 0.914242 -30.339
26 153.077 3.19922 -29.834
26 153.86 4.0685 -27.53
26 154.371 5.18242 -25.4298
26 152.257 6.2997 -27.22
26 155.997 9.00054 -26.8502
26 153.541 8.62399 -26.847
26 152.845 10.3692 -22.49
0 156.334 24.3885 -16.2343
0 188.839 17.838 -55.9577
26 181.937 18.8973 -46.7887
26 181.267 21.6556 -41.4658
0 158.436 27.6687 -13.4998
0 159.8 30.1434 -12.9984
26 156.227 4.53482 -27.6384
26 156.057 4.00159 -23.7731
26 157.92 7.96477 -25.0892
26 159.387 10.1997 -24.7882
26 182.031 19.001 -42.0435
26 183.992 22.3998 -41.3835
26 182.767 22.1059 -37.176
26 194.162 36.095 -41.1892
26 161.562 2.05639 -26.2988
26 161.686 5.93917 -25.4365
26 159.244 5.7036 -25.4275
26 186.677 1.62844 -55.8485
26 159.832 6.81217 -23.3068
26 162.756 8.52133 -25.1206
26 163.929 10.7353 -24.6489
26 150.806 14.6836 -6.2507
26 185.125 22.3063 -37.0392
26 197.901 60.0468 -21.5385
26 163.569 5.15494 -23.6437
26 164.793 7.2661 -23.3232
26 166.101 9.46186 -23.0192
26 187.633 21.5688 -33.7407
26 61.6182 -66.5069 33.0922
26 150.377 -30.0216 -31.5407
0 162.992 -16.143 -31.4785
26 111.557 -25.9613 21.2165
26 112.042 -15.216 29.4139
26 187.046 6.77598 -33.6132
26 223.13 17.2416 -55.9457
26 268.573 55.763 -77.4672
26 232.797 26.9512 -56.1766
26 95.1942 -41.647 52.6963
26 213.231 -24.2309 -58.9013
0 205.187 -13.0843 -38.2073
0 199.741 -9.46748 -24.8023
0 217.682 0.703044 -33.4705
0 219.047 3.17771 -32.9691
0 212.704 -6.27742 -26.5421
0 219.893 3.11984 -26.7713
0 223.981 3.78611 -32.9724
0 222.251 4.2875 -30.7377
0 218.631 -6.97603 -31.0132
0 216.901 -6.47463 -28.7785
0 219.996 -4.50136 -30.5118
0 218.266 -3.99996 -28.2771
0 213.447 1.2859 -16.6038
0 228.287 2.72543 -31.244
0 226.557 3.22683 -29.0093
26 183.365 -53.0277 -23.9531
0 221.207 -7.5353 -27.0501
0 219.477 -7.0339 -24.8154
0 222.835 -0.4155 -25.5443
26 226.156 19.4002 -9.91147
26 200.037 -18.5782 -9.61604
0 224.885 -10.265 -23.59
26 246.148 -5.33688 -43.3134
0 226.724 -11.6299 -21.86
0 222.527 -11.4327 -19.6236
0 231.184 -7.18198 -23.0919
0 229.454 -6.68058 -20.8572
0 230.819 -4.20591 -20.3558
0 228.564 -12.9948 -20.1299
26 246.304 -34.7944 -54.9542
26 246.483 -30.1474 -49.3289
26 244.202 10.1919 -16.0066
26 243.224 9.89949 -13.0099
26 253.289 -37.9767 -58.9361
26 246.186 -35.9948 -50.4519
26 247.864 -33.7553 -47.6818
0 233.709 -20.871 -19.909
0 213.686 -14.0487 9.14062
26 210.409 -26.6484 6.50413
0 240.738 -23.7401 -24.8831
26 209.473 -40.3656 -1.24147
0 248.863 -35.5374 -38.0655
26 237.007 -30.2135 -19.9491
26 236.884 -27.3529 -16.9519
26 223.161 -22.868 2.77989
0 249.242 -24.998 -25.3911
26 239.029 -35.104 -17.2482
26 238.847 -32.2191 -14.2279
26 305.14 29.5216 -35.8379
26 238.689 -69.3462 -41.0278
0 227.257 -63.3435 -22.7477
0 220.709 -57.5562 -8.83971
0 222.073 -55.0816 -8.33832
0 236.35 -28.6659 -5.05606
26 256.255 -12.6925 -9.85574
0 214.628 -62.3662 -1.40832
0 235.101 -25.2463 6.11258
0 238.496 -52.8943 -14.5476
0 261.065 -19.2518 -11.9975
0 224.861 -64.1255 -4.15099
0 250.979 -52.6225 -25.2214
26 250.362 -40.6821 -12.7557
26 271.748 -10.931 -11.9901
0 228.693 -61.3467 -3.65123
0 264.378 -19.0055 -5.80135
26 283.209 -9.37701 -18.1966
26 209.113 -71.6977 14.8308
0 225.81 -71.8046 -1.6937
0 226.438 -70.1355 -3.42538
0 227.802 -67.6609 -2.92398
26 227.028 -27.7444 28.1042
0 228.277 -71.5004 -1.69534
0 229.642 -69.0257 -1.19394
0 249.307 -66.1143 -19.8022
26 230.939 -40.2343 21.1428
26 253.004 -41.4656 -3.17109
0 232.583 -72.5611 0.0330623
26 243.901 -63.1598 -7.09328
26 211.793 -79.9 19.8137
26 211.116 -77.1554 20.0951
26 213.025 -76.4873 23.495
0 256.445 -69.8469 -20.8115
0 255.926 -72.3794 -15.1151
0 259.021 -70.4061 -16.8484
0 257.291 -69.9047 -14.6137
26 244.515 -74.9307 -0.362419
26 224.971 -64.4641 33.7436
0 258.874 -69.157 -6.1828
26 250.154 -45.5394 28.827
26 241.45 -97.3873 8.01291
26 239.848 -63.583 38.6235
26 254.491 -101.554 0.221139
26 256.551 -98.7636 2.56462
26 253.627 -99.084 2.98801
26 259.147 -90.9425 6.55936
26 254.725 -87.7942 8.56595
26 257.72 -92.5214 10.0231
26 277.518 -70.8495 4.7932
26 274.563 -108.032 -17.6577
26 245.007 -112.953 17.9422
26 283.239 -63.6173 19.8256
26 265.796 -98.488 12.1809
26 277.247 -82.9551 15.8474
26 283.002 -82.0478 16.174
