ITEM: TIME
40.0
ITEM: TIMESTEP
0
ITEM: NUMBER OF ATOMS
348
ITEM: BOX BOUNDS pp pp pp
-185.595 185.595
-185.595 185.595
-185.595 185.595
ITEM: ATOMS type x y z
26 21.7442 36.5078 6.83629
26 15.5588 27.0779 17.7214
0 34.6752 27.2757 -28.0383
26 50.6585 30.0314 -31.3791
0 21.2787 20.0893 -7.60191
0 33.9691 23.5722 -20.4311
0 36.5321 24.8271 -20.1237
26 18.5384 13.1612 -3.69177
0 -0.588867 0.272698 1.02611
0 33.5807 13.1803 -14.9676
0 45.7834 16.9705 -24.985
26 47.2169 24.6449 -1.4629
0 11.3472 2.42204 -0.0684409
0 26.4278 6.73811 -22.8288
0 25.6252 7.77459 -6.96679
26 41.9794 9.59565 -35.7103
26 57.3652 22.513 -3.13584
26 81.9976 29.2684 -28.0843
0 39.8752 5.59533 -36.486
26 43.9785 6.41909 -38.2945
26 41.6612 6.18397 -33.4907
26 44.1568 8.82605 -35.2234
0 42.8776 8.91292 -34.8629
0 45.1257 10.897 -21.5052
0 34.9221 3.50722 -26.8621
0 41.5594 2.72496 -38.81
26 40.2763 2.87289 -38.4426
26 42.0402 3.42189 -39.8844
0 43.6347 4.28726 -35.6909
26 40.484 5.3101 -35.4008
26 123.165 50.6969 16.8897
0 35.8036 1.67333 -13.3241
0 33.1923 2.78842 -9.50406
26 42.4804 2.13074 -37.97
26 45.1719 2.34363 -33.0402
26 40.5012 11.2633 20.9487
26 132.074 27.3147 -111.047
0 31.3381 -0.722153 -6.512
0 32.4863 -0.91514 -1.89687
0 32.9257 1.14751 -0.581171
0 35.4887 2.40244 -0.273803
0 41.9532 1.19843 -22.4603
0 41.4655 1.5058 -19.6485
26 48.3957 -0.678952 -34.3807
0 40.7874 5.33405 10.5795
26 41.7272 9.18388 21.26
26 87.2453 44.6799 107.391
26 133.518 55.2194 45.4545
26 173.705 65.3218 -8.7765
26 20.9079 -16.8875 -46.074
0 38.4455 2.13085 16.3833
26 122.849 39.0538 -0.774362
26 38.4249 -10.4461 -32.8988
26 37.2241 -8.85121 -30.041
0 43.6197 2.27069 12.8706
26 57.6977 3.53288 -10.043
0 119.457 35.3715 9.22169
26 125.81 58.4618 110.347
0 46.4037 1.57735 19.2892
0 49.4544 2.52491 16.7848
26 76.5025 19.1932 38.0205
26 29.507 -22.2547 -17.618
0 44.6461 -6.67327 14.0264
26 28.6183 -23.934 -16.1632
26 69.8909 -2.65276 -5.47574
26 123.289 39.8489 87.0075
0 60.3899 -8.20202 9.59948
26 75.9578 -1.92987 8.62211
26 75.9566 8.56586 59.5228
26 93.6338 5.78449 -2.95261
26 136.903 25.9557 -11.6017
26 183.804 44.9694 -9.87896
26 54.5513 -16.0326 -4.47767
0 116.156 32.3391 102.738
26 142.528 18.473 -47.2754
0 120.258 37.8337 113.104
26 128.371 41.536 125.089
0 81.6507 -2.78824 11.2304
0 91.4149 2.53885 15.2716
0 89.6369 4.19007 36.7571
0 113.87 11.3488 6.48366
26 108.298 17.266 55.4413
26 126.929 14.6736 4.759
26 51.2168 -17.2572 22.172
26 103.73 14.3491 72.4878
0 113.423 24.7032 103.099
0 116.961 25.3434 97.7826
0 124.114 31.7856 105.644
26 69.0271 -16.8561 6.25969
0 98.9821 -2.44732 12.7344
0 94.7173 3.11075 52.4059
0 104.596 -0.244829 10.5374
0 109.234 2.5724 13.9638
0 110.161 4.32768 12.4678
0 111.797 3.82733 14.2712
0 100.895 10.1677 65.8906
0 116.207 24.0099 109.517
0 121.82 26.2124 107.32
0 121.945 29.0042 121.686
0 126.583 31.8214 125.113
26 53.8593 -26.7302 12.6448
0 103.181 -1.69275 14.8451
0 101.652 5.54201 65.0626
0 111.358 1.76468 12.9555
0 112.993 1.26432 14.7589
0 110.87 2.07204 15.7672
0 104.215 6.79694 65.37
26 101.799 16.8805 111.385
0 122.232 20.7432 86.015
0 123.992 23.0347 102.184
0 122.041 24.2641 113.431
26 76.7167 -12.9367 45.8561
0 102.302 -5.81805 12.2137
26 94.1602 9.56914 117.516
0 122.577 21.5867 106.492
26 133.75 23.4105 92.0669
26 182.503 24.332 -22.4625
26 36.4323 -56.2078 -70.046
26 78.9753 -15.9013 46.5967
0 95.4464 -9.04672 28.9571
0 96.5946 -9.2397 33.5722
0 101.06 -6.84422 26.7601
26 106.419 2.5581 71.3497
0 109.783 5.41025 78.2071
26 120.958 21.3364 121.62
26 124.892 22.565 130.991
26 124.565 23.8182 129.142
26 184.225 21.3149 -23.4344
26 58.0912 -39.6893 -10.8113
26 75.7133 -24.5532 22.1272
0 102.18 -14.569 8.75435
0 104.743 -13.3141 9.06172
0 99.3786 -9.93305 39.9907
0 113.055 4.40954 81.8139
0 110.931 5.21726 82.8222
0 177.911 11.7974 -46.9155
0 183.085 11.9373 -50.4282
0 100.278 -15.7096 15.8738
26 106.447 -4.42458 72.6722
0 120.601 9.3252 106.025
0 177.817 10.5783 -27.754
26 146.242 29.4003 144.162
26 189.567 16.7386 -36.7144
0 101.474 -18.2726 16.3615
0 173.715 5.08367 -38.1196
26 101.611 -25.5609 -9.97707
0 166.296 -2.99942 -37.058
26 104.786 -21.7995 36.3935
26 126.793 7.80043 120.411
0 175.62 0.265017 -34.3325
0 175.133 0.572385 -31.5208
0 181.894 2.58189 -29.1026
26 164.797 30.1065 161.989
0 155.213 -14.5145 -45.0463
0 167.101 -9.9951 -42.0134
0 171.739 -7.17787 -38.587
0 169.301 -5.64103 -24.5283
0 174.302 -5.92294 -38.2796
0 170.228 -3.88575 -26.0243
0 178.453 -2.79835 -32.0414
0 181.943 0.21187 -33.2301
0 181.455 0.519238 -30.4183
0 183.091 0.0188826 -28.6149
26 184.925 8.90777 5.35918
26 99.3802 -28.6943 42.8465
26 111.34 -28.7842 8.8998
26 114.555 -28.2067 13.0878
26 115.283 -26.0514 12.8506
26 112.213 -12.669 91.6031
0 139.454 -15.0023 7.94215
26 89.5752 -39.1565 20.23
26 98.5152 -30.3993 44.29
0 171.396 -13.9806 -48.1575
26 160.716 12.1242 114.954
0 189.949 -2.71165 -34.4516
26 92.4256 -21.2387 124.23
26 142.196 -21.1716 2.47318
26 145.133 -14.5681 33.789
0 110.749 -41.9902 -4.3414
26 115.576 -28.4609 54.3571
0 139.505 -23.3315 14.7214
26 146.875 -24.1339 3.60529
26 148.749 -22.4305 6.72744
26 120.364 -36.4874 13.637
0 140.577 -28.6863 0.843049
26 140.175 -28.1445 9.52867
26 147.97 -26.3654 3.91484
26 150.553 -25.1764 4.44973
0 179.797 -18.4306 -33.0293
26 173.873 -12.6158 12.9156
26 148.639 -27.545 1.79194
26 152.617 -26.3452 3.38134
0 169.278 -25.0912 -25.3359
0 175.331 -20.8261 -26.2172
0 179.53 -20.0715 -24.1064
26 195.338 -16.2933 -43.1719
26 197.187 -13.8635 -42.8019
26 161.803 -21.6541 15.6809
26 163.427 -22.0117 17.3105
26 160.884 -23.1114 18.1755
0 172.377 -26.5137 -31.9677
0 173.965 -24.644 -26.0369
26 194.486 -17.9836 -41.6109
26 106.969 -53.6104 7.30217
0 124.448 -43.5086 21.6401
26 154.192 -32.1214 13.8551
0 174.597 -32.0615 -41.2309
0 180.823 -27.3746 -31.8736
0 143.71 -34.4953 38.6454
0 177.821 -30.6922 -33.4966
0 202.475 -17.5281 -24.7995
26 212.084 -21.4757 -56.3497
0 205.65 -13.7888 -12.9379
0 145.508 -46.0484 -9.5884
26 161.939 -45.1755 -49.2562
26 145.225 -33.7025 43.1251
0 206.646 -24.3053 -45.3096
26 213.387 -11.412 -6.73199
26 118.146 -59.8972 5.4353
0 127.549 -50.8903 25.9149
0 132.139 -45.703 33.4688
0 131.652 -45.3956 36.2806
0 141.952 -42.7459 33.3826
26 193.73 -34.7554 -55.9734
0 200.105 -28.2631 -41.6166
0 132.897 -50.3287 32.6408
0 132.848 -47.9586 36.7683
0 145.95 -49.9449 2.63393
0 151.076 -47.4351 3.24866
0 180.435 -37.7664 -26.4101
26 171.175 -31.3657 24.9327
0 212.577 -28.7912 -49.6503
26 214.577 -28.4708 -60.375
26 216.389 -29.4102 -58.2017
26 214.3 -28.5916 -56.7666
26 227.824 -24.2979 -68.0371
0 144.784 -45.8093 35.6737
26 151.959 -41.4446 45.2923
26 165.414 -48.5437 -24.9177
0 190.783 -37.4868 -33.4354
26 200.194 -40.2809 -66.7836
26 213.45 -36.5595 -72.1843
26 200.384 -28.1535 -4.15914
26 214.428 -34.8778 -73.6735
26 259.149 -12.2657 -63.3593
0 138.952 -52.0227 42.6662
0 197.642 -40.2173 -39.2722
0 200.205 -38.9624 -38.9648
26 205.293 -37.4432 -47.7921
0 218.633 -30.4852 -39.6249
26 238.914 -23.9854 -55.122
0 140.149 -54.5857 43.1539
26 180.591 -49.45 -33.1522
26 241.737 -27.07 -65.2933
26 128.862 -76.3891 -34.7838
26 153.392 -62.285 -8.65787
0 208.163 -39.5159 -36.0589
0 213.825 -39.6834 -42.3834
0 212.362 -38.7613 -33.9482
26 222.054 -39.6261 -57.4847
26 222.461 -37.5676 -56.3904
26 244.839 -26.8823 -63.0624
26 112.952 -62.1088 100.126
0 206.357 -45.3965 -37.1943
0 206.309 -43.0264 -33.0669
26 221.628 -41.5549 -58.9558
26 223.649 -39.9974 -55.8643
26 96.7966 -79.0609 75.6696
0 212.631 -43.0796 -31.9644
26 94.8287 -87.5377 53.5883
0 127.969 -74.237 37.3297
26 162.423 -73.9509 -49.7465
0 144.886 -62.4677 49.2321
26 229.201 -37.1195 -20.2477
26 117.796 -80.3325 47.154
0 138.394 -68.7955 48.7977
0 141.617 -67.4262 56.532
0 146.083 -65.0307 49.7198
26 158.277 -55.1429 77.1393
0 216.487 -49.1277 -39.4242
0 109.868 -77.928 96.1219
0 149.403 -68.4015 49.1992
26 106.417 -94.3007 30.7212
0 143.398 -75.0366 45.9531
0 141.935 -74.1145 54.3883
0 147.988 -69.8494 53.507
26 149.777 -63.0465 84.5494
0 135.93 -80.7497 51.1421
0 138.933 -77.4321 52.7652
0 143.619 -76.9849 52.0642
0 146.182 -75.73 52.3716
0 147.597 -74.2821 48.0638
0 151.308 -73.2201 52.9863
0 150.82 -72.9128 55.7981
26 109.433 -108.963 5.52997
0 110.504 -91.3047 91.8345
26 129.158 -86.3953 76.1387
26 130.918 -85.3197 77.1267
26 143.296 -87.896 25.3575
0 143.449 -83.3659 52.7323
0 142.961 -83.0585 55.544
0 145.524 -81.8036 55.8514
0 153.701 -78.3461 53.9618
0 152.238 -77.424 62.3969
0 156.752 -77.3986 51.4574
0 156.264 -77.0912 54.2691
0 120.728 -93.8167 70.4431
0 115.19 -90.8574 91.1336
0 119.216 -90.5246 83.0058
0 122.44 -89.1553 90.74
0 124.027 -87.2856 96.6708
0 125.93 -86.1451 89.5513
0 148.136 -82.9187 52.0313
26 180.702 -66.8128 56.6966
26 139.276 -93.4371 48.0267
0 120.634 -95.0359 89.6046
26 159.607 -84.3281 50.4643
26 182.885 -75.7187 34.046
26 128.823 -102.563 51.6936
26 181.753 -81.3374 33.5058
26 183.938 -80.0305 30.6794
26 124.106 -113.664 21.9108
26 125.04 -104.1 69.3659
26 141.015 -106.201 18.9274
26 162.958 -91.2961 47.1027
26 126.133 -106.489 71.2928
26 130.293 -102.987 75.4328
26 139.857 -101.195 68.0144
26 162.508 -93.5924 47.3886
26 168.229 -93.2302 47.2228
26 166.658 -91.4672 47.9648
26 166.035 -90.2871 50.157
0 174.058 -90.5487 41.2471
26 167.25 -95.5001 47.3238
26 164.23 -94.3485 49.3914
26 151.683 -111.336 24.9841
26 142.343 -103.127 82.426
26 190.032 -86.7692 47.2371
26 211.117 -101.606 -61.6649
0 158.827 -111.148 37.9272
26 166.974 -104.124 50.9606
26 167.684 -102.343 49.6025
26 169.154 -102.791 51.5038
26 293.731 -57.618 1.17659
26 154.908 -122.13 28.0018
26 183.922 -107.752 49.3321
26 120.604 -143.715 40.6546
26 159.664 -140.892 77.9467
