ITEM: TIME
40.0
ITEM: TIMESTEP
0
ITEM: NUMBER OF ATOMS
354
ITEM: BOX BOUNDS pp pp pp
-185.595 185.595
-185.595 185.595
-185.595 185.595
ITEM: ATOMS type x y z
26 24.6708 5.28367 -38.4949
26 27.8467 -39.624 -31.2546
0 -0.802641 -0.512489 -0.0494224
0 41.0402 -8.99177 -27.2016
0 15.7706 -4.09582 -3.95884
26 39.2989 -22.2263 -21.9714
0 38.4077 -3.53271 -17.0356
0 39.3208 0.819863 -18.7321
0 34.1275 12.7704 -12.7183
0 32.4317 -8.99234 -9.97737
26 24.6325 29.7172 3.71375
26 32.265 31.2084 -1.72246
26 24.7965 -30.7598 -5.4964
26 24.6722 -29.5274 -3.44388
0 34.95 -3.73942 -7.28231
0 40.8807 -8.71097 -10.7744
0 29.4744 -7.67935 -2.12683
0 39.0121 -5.67177 -8.83852
26 24.6771 -22.7419 5.07306
0 34.0794 -19.8364 -4.12873
0 34.4042 -15.6903 -1.81329
0 37.5108 -10.2309 -3.13014
0 38.336 -4.5651 -2.71748
26 47.0809 18.3013 -4.10161
26 49.7606 20.77 -6.14413
26 46.2617 -39.162 -13.0727
26 54.6607 -18.6255 -12.9089
0 36.9225 -10.4374 0.881778
0 40.0291 -4.97794 -0.435074
0 35.5543 -5.87847 0.914815
26 30.923 13.0217 10.4752
26 47.0791 15.5406 -4.30881
26 49.7517 18.0087 -6.3537
26 33.0615 23.5427 10.791
26 29.6642 -52.4079 2.26568
26 8.00461 -20.1273 22.207
0 28.6652 -15.6907 9.66955
0 49.0664 -4.49006 -5.24397
26 59.761 3.61633 -9.03489
26 44.7253 10.7079 2.56148
0 39.8299 29.2228 9.51177
0 39.5711 -18.242 2.92482
0 34.9208 -16.5162 8.49296
0 39.8959 -14.0959 5.24027
0 35.3334 -13.6833 8.69928
0 51.6914 19.2796 2.52768
26 51.4608 -9.00232 1.96114
26 49.0197 -10.0338 1.46598
0 48.1912 30.8173 10.8239
26 51.1874 -9.27806 5.83398
26 49.2344 -10.4977 5.46246
26 53.7045 -7.74503 2.57405
26 50.3985 -10.7921 7.69568
26 29.2406 -6.10924 27.2098
0 57.8563 -2.40821 8.48353
26 58.4731 18.0442 16.2472
26 59.984 43.7501 19.8814
26 100.663 40.9031 -12.7779
0 59.3738 -0.194685 14.9842
0 60.6995 6.99077 13.494
0 54.1805 11.7558 20.998
26 99.4482 30.2334 -7.14048
26 100.322 33.8271 -5.46793
26 105.737 47.6136 -6.041
26 103.529 47.9465 -6.29526
26 53.1205 -4.41561 25.2756
0 59.523 6.57774 21.5179
0 52.6792 7.19672 26.7064
26 102.116 27.9723 -5.60828
26 103.176 31.679 -6.67772
26 106.235 44.683 -7.19124
26 75.3145 -17.5693 10.8175
0 79.1838 -11.3761 9.1059
26 63.2225 1.05124 22.3759
26 123.405 22.4363 -14.1174
0 103.948 33.6125 0.680209
0 111.117 37.1396 -2.19286
26 110.363 21.1292 0.0230021
26 98.6801 -16.1892 8.25168
0 114.676 11.512 3.17705
26 103.827 47.0826 16.648
0 119.606 3.50108 3.49059
0 123.625 13.3131 0.477273
26 90.8768 -9.74686 23.2166
0 116.193 13.7255 9.6777
26 129.192 -26.0751 1.81146
0 127.054 0.743045 6.4992
0 137.417 8.41638 0.200159
0 136.959 -4.84768 3.56006
0 130.853 2.75024 11.2703
0 145.821 -1.73343 2.9694
0 139.389 1.71842 8.36424
0 137.108 1.92475 10.0937
0 139.802 4.5513 8.57057
26 107.373 42.4649 41.2394
0 140.257 -4.36018 10.234
0 142.863 -0.42044 10.8199
0 143.276 2.41244 11.0263
0 138.801 1.51191 12.3762
0 147.293 -9.95109 13.0363
0 145.011 -9.74476 14.7658
0 146.75 0.273575 13.482
0 142.187 0.686226 16.941
26 149.542 23.6557 15.4926
0 153.136 -13.6095 11.6534
0 155.699 2.07464 10.7822
26 170.397 4.2876 0.205029
26 134.378 21.1257 29.1432
0 153.155 6.22051 18.8391
26 172.758 32.575 7.0673
0 158.998 2.56214 17.4561
26 167.427 -4.69002 12.7783
0 155.715 -0.270933 22.9912
26 179.587 -4.76008 6.18871
0 164.34 -2.61593 17.976
0 153.346 1.24857 26.8299
0 155.952 5.18831 27.4158
26 143.758 7.85064 35.9849
26 181.66 -24.0806 7.57489
0 153.389 -10.4958 28.287
0 158.926 1.52975 31.7743
26 158.343 16.5402 35.4997
26 129.153 34.4748 58.8855
0 153.775 1.73588 39.2452
26 161.843 16.1428 35.906
26 160.183 14.3085 35.6358
26 164.66 18.4616 34.1126
26 162.385 17.5423 34.0247
26 160.406 17.9665 35.5402
26 173.102 26.5602 28.4526
26 142.311 16.3126 52.1101
26 165.394 15.6042 34.7517
26 182.24 99.3107 40.1821
26 214.27 43.1912 8.22147
26 152.147 -1.04626 51.7393
26 156.386 18.7457 50.2407
0 174.475 26.4813 37.3991
0 200.719 34.0236 21.1026
0 193.875 34.6426 26.2911
0 204.781 32.0912 19.5464
0 202.412 33.6107 23.385
0 209.756 34.5115 16.2937
0 198.35 35.5431 24.9412
26 214.371 -4.20583 9.17785
0 154.853 10.5153 56.2915
26 207.744 10.0068 17.7248
0 205.973 30.1587 23.7316
0 211.449 34.0986 18.5761
26 236.989 72.642 8.23733
26 209.265 8.09561 19.9855
0 199.673 20.553 28.4744
0 197.628 26.2186 34.6285
26 250.679 32.8605 -4.67734
26 192.859 46.0183 41.533
26 180.821 57.2894 51.6314
26 219.154 100.903 33.8656
0 219.789 -6.31233 17.7259
26 216.846 26.3264 25.0493
26 250.559 31.8835 -1.0093
26 252.79 34.6474 -1.89458
26 217.848 23.0297 27.1012
26 216.177 26.1293 29.0848
0 203.296 25.1866 37.4638
0 201.014 25.3929 39.1933
26 220.476 27.2091 27.7106
26 218.307 26.1145 27.2751
26 209.887 45.3597 37.8927
26 217.268 22.7765 31.0475
26 217.757 25.6646 31.2921
26 217.107 24.0895 33.1055
26 221.992 26.7063 29.9513
26 219.849 25.5785 29.5341
26 222.692 28.2676 28.1589
26 222.572 29.5427 30.2354
26 222.621 49.4821 33.8085
26 224.733 -13.8736 21.6037
26 232.66 1.09566 19.2245
26 150.802 20.8855 81.7763
26 221.019 23.7207 33.7838
26 221.509 25.181 31.8352
26 221.427 26.3661 33.9975
26 221.936 27.9286 32.0792
26 222.407 30.8634 32.3353
0 218.761 0.0470603 32.2834
26 233.218 0.849106 22.6162
26 265.56 14.2511 2.83844
26 222.048 29.1402 34.2338
0 242.376 35.2239 21.1296
0 238.226 38.4694 24.795
0 243.201 40.8897 21.5423
0 213.41 108.034 57.5922
26 238.657 125.317 40.0762
26 211.626 -6.12032 41.6896
26 210.621 -8.77363 40.2571
0 227.298 -0.984758 29.3773
0 209.437 35.0731 49.1483
0 207.156 35.2794 50.8778
0 246.262 35.9179 23.7916
26 203.822 50.4397 57.787
0 228.878 105.07 47.3884
26 250.104 112.476 32.8836
26 228.377 129.316 54.6684
0 223.516 -5.33753 36.8152
0 226.904 16.0123 36.3567
0 249.694 45.5234 24.7902
26 205.548 48.8322 57.9161
26 274.984 51.0481 8.70184
26 222.227 100.26 55.771
0 229.027 111.842 53.9221
0 243.435 24.1734 30.9902
0 243.848 27.0062 31.1965
0 234.723 27.8315 38.1145
0 244.348 28.5259 29.2937
0 244.261 29.8391 31.4028
0 244.761 31.3588 29.5
0 242.48 31.5651 31.2295
0 237.829 33.291 36.7977
0 240.611 34.6043 33.1654
0 252.43 36.4056 24.7242
26 268.549 49.8875 16.9088
26 268.089 53.0238 16.0204
0 213.819 88.6911 62.8218
26 203.404 93.3274 71.1119
0 223.682 94.8447 58.4256
0 230.833 4.96199 40.4758
0 226.271 5.37464 43.9348
26 261.217 6.64802 17.294
0 241.066 25.6929 34.8288
0 243.672 29.6326 35.4147
0 244.173 31.1523 33.5119
0 258.273 32.7472 23.3412
0 242.717 37.0244 35.6541
26 257.178 67.833 32.9484
26 207.203 2.76185 58.3104
26 283.655 13.0507 3.3938
26 264.618 19.7579 18.8065
0 248.059 31.8463 36.174
0 245.778 32.0526 37.9035
26 255.481 70.7862 35.4053
26 255.343 72.1023 37.4295
26 254.293 69.5872 37.4017
26 250.199 111.459 47.3569
0 247.341 44.6973 40.8379
0 235.192 90.1543 59.878
0 244.925 109.366 56.1337
0 232.676 11.3216 49.2919
0 232.588 12.6348 51.401
26 222.698 28.5495 61.5116
26 225.012 93.0421 71.3645
0 235.324 3.51695 51.335
26 228.894 91.0585 71.734
26 229.402 92.5422 69.9391
0 264.305 1.94138 34.9724
26 204.264 32.4438 85.7402
0 268.191 2.6354 37.6345
26 246.216 15.3182 56.0867
0 242.313 61.0747 65.5945
26 247.321 103.641 70.4914
26 253.61 32.7988 56.4977
26 275.087 121.637 57.5015
26 250.155 30.5161 60.5789
26 219.701 137.155 104.163
26 278.865 -12.7269 36.8461
26 272.785 12.9984 45.8985
26 254.995 29.7431 61.2126
26 229.351 37.7089 83.501
0 239.222 53.2697 79.1203
0 246.479 55.4836 74.1382
26 253.231 104.404 77.0045
26 262.815 12.2372 56.7902
26 246.343 15.855 70.5056
0 219.777 34.6773 93.7945
26 245.703 73.4008 78.7778
26 271.171 31.4048 55.8915
26 253.089 44.3427 73.6644
0 247.171 52.0314 80.2262
0 245.302 55.0706 82.162
0 245.715 57.9034 82.3683
26 251.089 73.9983 80.4682
26 247.409 74.1868 83.0538
26 245.147 74.6579 84.9177
26 247.652 75.9482 81.3266
26 245.799 75.9876 83.0479
26 243.972 87.5584 89.7286
26 241.64 87.7647 91.5927
26 242.189 89.2766 89.6026
26 258.914 -17.3977 62.3839
26 263.836 32.2565 67.7586
0 252.796 62.7437 81.6044
0 249.058 68.8221 85.476
26 246.757 77.1394 87.8064
26 245.783 79.5182 88.6727
26 245.491 81.7256 87.6311
26 247.379 83.9051 90.1482
26 243.296 83.3053 91.3414
26 243.001 84.4659 93.5685
26 245.743 85.7859 89.9321
26 245.658 87.0128 92.1253
0 252.838 50.9993 83.0615
0 250.427 64.2632 85.443
26 246.773 82.5896 92.1324
26 244.892 82.7983 93.8329
26 247.977 62.6494 93.1456
0 252.532 66.6833 87.9317
26 222.729 38.0466 110.231
26 259.615 15.1443 83.1008
0 263.412 73.5307 91.9389
0 255.437 84.1678 101.585
0 265.648 62.8932 93.7757
0 262.148 74.4309 102.072
0 256.954 86.3814 108.086
0 269.228 79.2711 101.308
0 269.641 82.104 101.514
0 267.36 82.3103 103.244
26 289.876 49.9025 83.2618
0 266.577 64.9002 104.288
0 269.771 69.0465 100.862
0 273.203 78.652 101.861
0 270.921 78.8583 103.59
0 271.334 81.6912 103.797
0 269.141 80.5843 103.417
26 249.358 25.3946 112.532
0 266.814 70.3595 108.713
0 280.784 85.0119 99.1941
0 271.289 71.26 107.363
0 280.739 74.5808 102.76
0 272.114 76.9258 107.776
0 272.527 79.7586 107.982
0 274.85 67.808 107.709
0 274.22 79.3458 110.264
0 268.374 60.8286 116.671
0 277.694 77.2069 112.72
0 275.412 77.4133 114.45
0 288.512 75.9688 108.084
0 281.756 75.2746 111.164
0 279.387 76.7941 115.002
0 277.105 77.0004 116.732
0 282.168 78.1075 111.37
0 286.273 64.4308 111.271
0 282.623 69.196 113.034
0 280.342 69.4023 114.763
0 278.886 75.2744 116.905
0 283.861 77.6946 113.653
0 286.923 72.7229 115.902
0 287.836 77.0755 114.205
0 285.554 77.2818 115.935
0 292.872 87.5813 119.596
0 290.221 73.2104 122.576
26 289.696 109.193 139.254
26 283.995 96.8803 148.324
26 280.171 109.273 156.324
26 316.336 80.1052 135.87
26 282.765 57.5412 172.904
26 332.112 25.6915 132.357
