ITEM: TIME
40.0
ITEM: TIMESTEP
0
ITEM: NUMBER OF ATOMS
428
ITEM: BOX BOUNDS pp pp pp
-185.595 185.595
-185.595 185.595
-185.595 185.595
ITEM: ATOMS type x y z
26 -15.2882 -15.9788 -76.2648
26 55.7287 82.4057 -2.89801
26 130.934 33.1152 -32.7762
26 196.747 10.7534 -58.5746
26 122.688 37.7843 -27.5915
26 63.9885 33.4597 -14.0937
26 108.499 37.1047 -22.6696
26 161.352 108.986 9.6301
26 36.8933 -23.4609 -30.5555
26 41.3467 -23.0489 -30.1355
26 38.1447 -20.8223 -30.8017
26 -3.29525 24.3537 4.1932
26 17.1593 47.3924 15.027
26 120.94 131.229 39.8012
26 41.8463 -34.6339 -35.4117
26 41.2549 -32.2358 -35.5488
26 172.18 82.4258 4.04188
0 7.37666 12.9102 2.9999
26 108.701 7.39426 -21.1397
0 76.1653 24.2822 -4.20641
26 152.69 2.44997 -34.5415
0 109.152 27.6874 -8.83704
26 141.65 77.5046 12.3143
26 172.008 78.1903 7.54103
26 173.023 81.0858 7.38162
26 156.789 92.1981 16.9762
0 0.830146 0.0988594 0.315663
0 43.9617 -15.096 -17.0093
0 43.1933 -12.7379 -17.1824
0 54.1393 -13.6182 -18.193
0 44.6005 -10.4571 -16.1549
26 124.309 -13.5372 -32.1385
0 150.37 85.8837 17.9986
0 10.729 2.52736 1.41208
0 1.27157 12.2289 8.86482
0 15.3108 14.9595 7.62906
0 65.5267 -2.3685 -10.6544
0 67.9328 10.1408 -5.63802
0 21.021 30.6232 17.1536
0 64.1526 15.4284 -0.171311
26 59.0277 22.8655 5.88486
0 75.7374 19.1869 -0.327521
26 98.8629 14.9397 -6.56447
0 107.956 24.9501 -5.13123
26 110.177 38.2896 4.56728
0 150.86 84.4764 20.4517
0 147.359 88.8132 23.6383
0 143.857 93.15 26.8249
0 31.2619 -15.0513 -7.73262
0 5.70415 18.615 16.6806
0 14.0662 25.7595 17.4308
0 15.5548 34.5807 23.873
0 68.7826 14.3232 -0.0503083
26 99.2502 32.35 4.51695
0 127.541 70.9133 22.3629
26 159.016 65.5155 12.8913
26 111.458 84.7973 31.767
26 32.6989 -8.73113 -1.70519
26 23.8527 -2.51701 4.02167
0 55.9683 -12.2503 -7.6989
0 6.11245 10.6673 13.7191
26 -4.49674 15.4104 17.658
0 31.0976 12.5176 11.4727
26 56.7215 3.4689 2.1859
26 143.999 -23.8438 -32.8149
26 20.5208 39.1022 28.8189
26 43.9399 47.5614 26.4564
26 93.2955 32.79 11.5684
0 120.586 66.0496 22.6402
0 130.764 67.5273 21.4565
26 132.798 79.2573 28.5594
0 44.8731 -17.4161 -5.0895
0 42.4187 -16.3881 -4.00995
0 46.2803 -15.1352 -4.06202
26 30.9527 -9.92344 -0.545015
26 32.6011 -8.95986 3.0313
26 36.2282 -7.6751 2.98612
26 24.6566 -3.15496 6.06334
26 23.755 -0.921215 5.94059
0 63.134 -7.84303 -3.24281
0 51.1409 -3.65392 -0.125153
0 26.9572 12.2155 13.8049
0 72.5432 -4.0073 -4.59958
0 21.0014 17.5803 18.0711
0 27.3987 24.3456 22.3541
0 14.3584 31.8435 27.5788
26 102.026 3.8516 -4.29445
26 162.581 -17.4495 -27.5692
0 124.659 66.846 27.3214
26 165.086 61.6344 15.3671
0 151.642 89.1532 33.0529
26 130.727 121.785 55.1821
0 27.7407 -23.7575 -3.6286
0 55.459 -23.886 -9.23465
0 38.2784 -16.6901 -1.67777
0 59.6807 -17.0435 -6.1522
0 57.2263 -16.0155 -5.07264
0 58.3548 -12.7839 -1.76504
26 85.9516 0.723454 0.462689
26 89.7042 1.95371 0.453789
0 113.497 21.5248 6.90955
0 120.207 47.417 20.4231
0 114.251 52.7818 24.6892
0 123.66 56.6175 23.3324
0 129.01 66.6916 29.7225
0 132.463 75.8921 32.6319
26 93.9412 -22.994 -12.3114
26 37.9292 -0.0376829 10.4344
0 43.7099 -0.0756311 10.1269
26 87.7076 2.44499 2.75179
26 140.997 0.71541 -7.99889
0 103.041 20.9979 10.3734
0 109.438 27.7632 14.6564
0 121.777 62.7787 32.2798
26 36.5934 -15.9085 6.78087
0 53.2968 -16.774 1.99284
26 71.7874 -6.10503 5.19323
0 141.769 -27.1632 -19.9459
26 28.3638 31.7835 34.8168
26 26.1138 31.9504 36.9933
26 79.1936 31.0623 26.8197
0 102.484 22.8995 14.9336
26 150.185 -42.4055 -27.7986
26 38.2909 17.091 29.4154
0 162.613 -25.615 -19.8601
0 160.159 -24.587 -18.7805
0 156.658 -20.2502 -15.5939
0 152.028 -19.145 -15.7149
0 149.294 -17.1663 -12.3553
0 158.065 -17.9694 -14.5665
0 153.435 -16.8642 -14.6875
0 150.702 -14.8854 -11.3278
0 110.696 23.9979 17.2826
0 108.242 25.0259 18.3622
0 113.511 28.5596 19.3376
26 115.142 43.8533 29.6868
0 117.127 50.8409 33.0763
0 136.06 85.1305 47.288
26 -12.1049 4.48219 33.9187
26 149.832 -54.1689 -31.1269
0 65.5821 -14.8792 9.02311
0 152.517 -20.5523 -13.2618
0 153.924 -18.2714 -12.2343
0 146.561 -15.1875 -8.99561
0 157.867 -10.4782 -6.87171
0 108.093 18.9798 19.961
26 116.193 40.013 28.5503
26 117.121 42.8854 31.2979
0 121.757 49.7358 33.1973
0 123.164 52.0166 34.2247
0 129.595 78.8596 50.0184
26 51.0906 -54.8952 -8.55972
26 65.6414 -37.3771 -1.38143
26 43.6737 -8.08944 21.643
26 99.5277 -19.1814 2.46859
26 103.674 -12.2463 7.23141
0 152.728 -21.0087 -8.52846
0 156.868 -20.7066 -10.8606
26 107.364 6.04436 15.1987
26 106.64 8.37832 15.0756
26 136.797 -1.67752 4.16071
26 207.639 -84.1859 -54.0005
0 98.5014 -10.9796 11.4059
0 96.047 -9.95167 12.4854
0 159.174 -27.7807 -10.3414
0 114.98 24.3379 26.6971
0 115.34 29.9275 29.8317
26 8.82246 -38.9629 15.8875
26 27.8832 -14.6159 25.9651
0 97.8625 -15.6185 10.5515
26 162.151 -40.6682 -15.9821
26 140.386 24.842 25.2324
26 148.868 -64.2755 -21.6547
26 147.254 -62.2858 -23.5502
0 187.118 -61.9806 -28.8208
26 163.772 -45.3945 -15.3401
26 161.578 -45.31 -16.6612
26 166.014 -45.33 -14.1345
26 163.6 -44.317 -13.1398
26 162.813 -43.0777 -15.5851
26 77.8733 -7.90945 24.9284
26 164.884 -42.002 -12.1484
26 162.755 -41.994 -13.3717
26 160.465 -40.8518 -12.3654
26 167.821 -38.7625 -12.4042
26 165.615 -38.5468 -13.5628
26 165.212 -36.6481 -9.24232
26 175.485 21.7212 19.8014
0 181.57 -64.5635 -27.5161
0 192.516 -65.4438 -28.5267
0 187.607 -63.3878 -26.3676
0 185.153 -62.3599 -25.288
26 166.542 -47.8358 -13.8318
26 165.739 -44.2685 -11.9135
26 167.016 -42.2479 -10.9483
26 166.084 -39.0003 -8.94379
26 167.298 -36.7331 -7.84321
26 56.5217 22.7674 50.0583
26 156.111 -7.94507 11.8622
26 164.793 -1.44037 13.8429
0 181.013 -62.6619 -22.9559
0 146.373 -47.3194 -5.56197
0 192.237 -64.493 -26.2466
0 182.42 -60.3811 -21.9284
0 183.548 -57.1495 -18.6208
26 118.107 -25.6028 10.95
26 165.128 -42.3327 -7.38152
26 106.121 40.8349 53.9688
26 154.413 94.6593 74.4971
26 156.907 97.3712 73.6348
0 144.687 -48.6495 -4.30934
0 185.085 -61.8655 -18.2746
0 182.631 -60.8375 -17.1951
0 189.307 -55.023 -15.1922
0 184.677 -53.9179 -15.3132
0 188.26 -51.7142 -13.0851
0 183.63 -50.6091 -13.2061
0 181.175 -49.5811 -12.1266
0 179.441 -37.3738 -4.77797
0 174.533 -35.3179 -2.61886
0 174.614 -28.7775 2.79577
26 133.728 64.8519 63.9476
26 138.896 67.0728 65.3229
26 133.104 66.7891 65.1737
0 149.876 76.3012 68.0099
0 151.643 84.1716 72.1719
0 178.212 -60.1888 -12.5828
0 188.389 -58.7111 -13.7665
0 185.935 -57.6831 -12.6869
0 197.438 -60.465 -18.2578
0 182.433 -53.3463 -9.50032
0 186.295 -52.0935 -9.55239
0 183.841 -51.0655 -8.47283
0 186.934 -47.4546 -8.69798
0 175.103 -30.1847 5.24896
0 178.917 -15.3946 11.2929
0 147.143 78.28 71.3695
0 153.819 84.0945 73.3724
0 151.364 85.1224 74.452
26 154.202 104.4 87.4545
26 35.259 -54.2722 23.593
0 186.425 -59.0903 -10.2337
0 187.832 -56.8095 -9.20624
0 182.923 -54.7536 -7.04713
0 189.518 -55.4795 -10.4589
0 187.063 -54.4515 -9.37932
0 193.101 -53.2758 -8.23083
0 164.287 -36.3012 5.57824
26 153.469 -25.9326 15.3641
0 179.407 -16.8018 13.746
0 155.437 85.9188 79.1332
0 187.961 -63.8064 -9.88758
0 186.914 -60.4976 -7.78054
0 182.006 -58.4416 -5.62143
0 193.509 -61.2235 -11.1923
0 188.6 -59.1675 -9.03317
0 188.321 -58.2167 -6.75306
0 183.413 -56.1608 -4.59395
0 190.007 -56.8867 -8.00569
0 188.96 -53.5779 -5.89865
0 184.133 -44.9815 1.6751
0 180.991 -35.0551 7.99622
26 145.916 72.1094 76.5786
0 156.565 89.1505 82.4408
26 192.369 -116.883 -38.712
0 191.265 -60.6519 -5.37943
0 188.811 -59.624 -4.29987
0 192.673 -58.3711 -4.35194
0 190.497 -58.2939 -5.5525
0 190.218 -57.3431 -3.27239
0 193.033 -52.7815 -1.21742
0 185.261 -41.7499 4.9827
0 182.625 -66.8457 -3.84959
0 186.078 -57.6452 -0.940208
0 193.522 -54.1887 1.23576
0 194.93 -51.9079 2.26325
0 190.3 -50.8027 2.14225
0 194.243 -43.0095 7.50481
0 191.788 -41.9815 8.58437
0 189.334 -40.9535 9.66392
0 193.195 -39.7006 9.61185
0 190.741 -38.6727 10.6914
0 188.287 -37.6447 11.771
0 189.973 -36.3147 10.5183
0 160.359 90.8977 89.4021
0 163.942 93.1013 91.6302
0 193.652 -61.1856 0.554425
0 189.824 -42.3607 12.1171
0 185.194 -41.2556 11.9961
0 196.418 -43.0866 8.70537
0 191.509 -41.0307 10.8645
0 189.055 -40.0027 11.944
0 181.692 -36.9188 15.1827
0 191.951 -28.9006 19.4136
0 195.044 -25.2898 19.1885
26 157.675 47.463 69.3341
0 194.862 -51.4135 9.27666
0 186.452 -45.0208 14.6224
0 187.859 -42.74 15.6498
0 187.172 -33.8415 20.8914
0 195.534 -26.697 21.6417
0 163.793 87.0552 93.229
0 191.082 -46.126 14.7434
26 156.683 94.246 103.045
26 185.731 93.7147 96.8363
26 205.724 -69.55 4.25038
26 203.106 -67.2761 2.93823
0 203.843 -52.6731 11.7988
26 196.178 -23.8569 32.3689
26 194.162 -23.7837 31.1698
26 146.619 77.6138 99.6113
26 203.335 -82.1732 0.308173
26 201.414 -82.0945 -1.20304
26 202.805 -79.8422 0.209856
26 202.543 -78.8294 2.46666
26 204.971 -73.2609 5.54967
26 206.535 -71.7734 4.24117
26 204.21 -70.9287 5.63718
26 205.529 -68.6301 6.56657
26 203.287 -67.6146 7.74882
26 206.874 -66.2924 7.61485
26 202.565 -64.2607 9.72119
26 193.82 -59.9633 13.679
26 203.306 -81.2018 2.62251
26 205.061 -80.2426 3.89084
26 204.365 -77.9064 3.83412
26 204.243 -77.4042 6.08149
26 203.529 -75.2947 5.49072
26 205.522 -75.0003 7.16998
26 202.602 -72.0729 7.16943
26 203.972 -69.9569 7.93054
26 203.762 -68.947 10.2242
26 205.273 -66.5916 11.2105
26 195.911 -60.0489 14.8522
0 194.318 -42.4772 26.2649
26 185.125 90.6054 106.14
26 205.622 -81.7536 6.38842
26 201.577 -81.4151 5.98783
26 204.934 -79.5802 6.16922
26 204.85 -78.9114 8.55395
26 206.058 -76.3419 9.61377
26 201.795 -75.7294 8.98277
26 205.317 -74.1141 9.33274
26 202.897 -72.3784 12.1165
26 204.546 -71.2658 10.2412
26 206.229 -70.2099 13.9961
26 203.57 -68.0521 12.5011
26 237.492 -62.67 10.1547
26 217.437 -26.53 33.3702
26 164.79 81.4141 106.629
26 164.533 82.312 108.786
26 197.474 -100.902 1.44282
26 205.267 -79.9908 11.4191
26 206.492 -77.7193 12.2174
26 202.278 -77.1257 11.5015
26 203.562 -74.6551 12.5536
26 205.557 -74.5507 14.0447
26 207.136 -72.9531 13.104
26 206.773 -72.076 15.4086
0 195.705 -53.2393 28.2098
26 199.569 -101.088 2.63673
26 205.071 -79.0625 13.6651
26 206.189 -76.819 14.4533
26 205.905 -75.8568 16.7439
26 203.167 -72.9342 16.9814
26 205.197 -71.8137 17.9626
0 202.511 -54.4217 29.5314
0 200.057 -53.3937 30.611
26 204.792 -77.9913 16.2995
26 238.184 -80.0963 11.1082
26 239.809 -78.6823 9.9034
26 146.447 70.6728 113.33
26 216.092 -87.351 13.4973
0 240.339 -52.5781 29.7551
0 239.292 -49.2693 31.8621
26 216.93 -89.8284 13.9222
26 215.146 -90.2005 17.3596
26 214.62 -87.8165 17.1522
26 213.166 -77.2905 23.7879
0 206.761 -74.1594 27.4353
0 239.7 -57.2169 28.9007
26 216.437 -76.6328 26.5298
0 233.514 -64.4387 29.3509
0 237.096 -62.235 31.579
0 238.504 -59.9542 32.6065
0 236.049 -58.9262 33.686
0 237.735 -57.5962 32.4334
26 218.652 -81.2397 27.9522
26 215.58 -78.7716 27.9969
26 217.513 -77.8668 29.0064
26 219.469 -76.6382 29.1286
26 216.946 -57.504 42.5688
0 237.586 -63.6423 34.0322
0 230.223 -60.5583 37.2708
0 241.808 -56.7998 37.1146
26 220.844 -123.711 3.75856
26 217.732 -59.7711 42.739
26 216.216 -73.5907 39.454
26 224.974 -75.5166 35.6434
26 212.434 -73.8108 42.5172
26 217.867 -72.9115 43.4794
26 236.323 -160.228 -4.32876
26 230.736 -39.9368 64.9297
26 216.646 -55.4802 70.6136
0 224.059 -100.368 45.8881
26 227.409 -106.041 46.0869
26 225.19 -106.163 44.9683
0 230.456 -93.6031 50.1711
0 227.084 -96.2632 52.6763
0 228.492 -93.9824 53.7038
26 235.841 -80.6068 59.9288
26 225.611 -62.8251 74.7389
26 234.687 -118.381 49.3932
26 226.322 -113.964 54.4301
26 227.44 -88.9566 67.8006
0 231.464 -122.998 49.8989
26 234.13 -120.026 53.4926
0 231.036 -128.093 53.7778
0 235.339 -114.71 62.2749
0 241.425 -127.072 57.3274
26 247.878 -95.6554 74.9631
0 245.007 -124.868 59.5554
0 243.811 -127.605 63.2612
26 253.738 -108.923 70.2646
26 249.701 -124.499 66.3704
26 241.559 -134.03 66.7746
26 213.692 -148.441 66.5063
26 208.554 -153.593 78.8939
