ITEM: TIME
40.0
ITEM: TIMESTEP
0
ITEM: NUMBER OF ATOMS
28
ITEM: BOX BOUNDS pp pp pp
-106.034 106.034
-106.034 106.034
-106.034 106.034
ITEM: ATOMS type x y z
74 -2.62534 17.2101 -23.2707
0 8.39437 5.75608 -8.54565
0 7.72121 10.1142 -0.286156
74 -3.91955 -0.133311 5.43432
74 -4.45283 -4.27071 6.5691
0 9.33354 9.87577 9.0688
74 8.93928 13.2175 17.0465
0 22.0495 -5.52113 -11.1864
0 22.277 -2.45337 -7.93449
0 21.373 10.5951 7.54768
74 16.6934 0.442802 2.03329
0 33.403 -2.24697 -11.9887
74 20.3527 1.98 0.327877
0 24.335 -10.1178 -10.091
0 24.6749 -27.8973 22.0626
74 16.4403 -21.1354 32.9553
0 26.2744 -29.9391 23.8769
74 16.5662 -27.6378 33.4138
74 44.4663 -8.69486 33.3587
0 32.8873 -36.8421 26.8452
0 34.272 -40.1484 32.9483
74 42.9953 -57.1799 37.7752
74 51.0187 -41.7536 47.7657
74 42.5174 -61.3166 38.8592
0 45.6962 -51.3735 48.9001
0 46.1546 -56.9961 44.9294
74 56.1152 -56.369 38.6096
74 53.1488 -45.7595 53.2603
