ITEM: TIME
40.0
ITEM: TIMESTEP
0
ITEM: NUMBER OF ATOMS
36
ITEM: BOX BOUNDS pp pp pp
-106.034 106.034
-106.034 106.034
-106.034 106.034
ITEM: ATOMS type x y z
74 -10.0919 -0.822482 5.41213
74 0.245968 -5.93551 -8.2393
0 5.49653 2.49286 1.07198
74 11.2997 8.38789 -10.0399
74 14.062 12.1396 -8.25124
74 13.2508 12.244 -5.23861
74 15.018 9.98785 -9.70272
0 28.4065 21.2459 -21.2003
0 12.6315 -14.1811 -0.230106
0 20.3578 -3.08629 -15.3293
74 21.7143 3.49039 -3.8155
74 24.2842 0.604144 -4.11942
74 29.1875 16.9671 13.7199
0 22.4763 -13.033 -3.30666
0 20.8042 -10.7906 1.13492
0 23.1614 -8.10315 -4.97378
74 25.8023 -3.25701 -2.15253
74 50.3765 18.5164 -72.7758
0 20.5388 -22.7776 3.13946
0 23.5507 -17.0577 0.257657
0 22.9832 -16.9427 3.36953
0 25.3707 -12.3579 -7.63321
0 25.458 -9.21034 -1.29443
0 21.7307 -21.7575 8.14852
0 27.2744 -7.05494 11.8356
0 42.9721 1.78231 -30.703
0 29.8161 -21.5145 3.17478
0 31.0081 -20.4943 8.18384
74 39.9231 -13.5629 -18.8127
74 37.6504 -14.4897 -17.4629
74 50.5 -6.7523 -47.5401
74 34.2739 -31.2835 6.69729
74 32.1156 -32.1666 8.0791
74 33.1952 -29.1278 8.06967
0 60.1301 -4.90404 -43.425
74 73.3142 -34.5642 -63.2358
