ITEM: TIME
40.0
ITEM: TIMESTEP
0
ITEM: NUMBER OF ATOMS
34
ITEM: BOX BOUNDS pp pp pp
-106.034 106.034
-106.034 106.034
-106.034 106.034
ITEM: ATOMS type x y z
74 -3.0574 17.2344 -37.5137
0 7.17488 -1.37246 9.22768
0 6.9536 1.82059 2.91498
0 12.755 3.86067 14.8533
0 16.8376 9.28173 11.1037
74 9.7255 -14.6677 -21.3187
74 17.4413 -12.9848 -4.38591
0 22.345 -5.6593 -12.5177
0 22.8199 -12.4467 -19.1417
0 25.6504 -3.30601 -16.2046
0 28.481 5.83465 -13.2675
0 29.8881 3.47962 -31.1726
0 30.8865 3.35434 -24.9226
74 31.5655 10.662 -28.1093
0 39.3809 -4.83656 -0.795419
0 41.8917 12.456 -2.45287
74 41.0066 -2.78309 -10.1241
74 42.6624 -0.237967 -13.5905
74 41.5318 -0.22784 -9.94239
74 41.7865 1.568 -11.8362
74 43.487 -2.10565 -15.3416
0 45.4213 -23.9966 15.4888
74 43.1603 -5.8887 -32.8641
74 48.4452 -2.86423 -3.13582
74 50.6816 -1.84094 -1.78002
74 54.0876 -2.56645 0.731183
74 59.5579 2.43307 16.3391
0 57.6837 9.87238 -13.0424
0 57.4625 13.0654 -19.3551
0 59.2232 -1.59788 4.11496
0 68.8226 -21.9989 3.77561
74 67.078 -1.57916 -31.8612
74 74.5878 -20.8691 11.5558
74 91.9168 -1.34956 -22.8449
