ITEM: TIME
40.0
ITEM: TIMESTEP
0
ITEM: NUMBER OF ATOMS
34
ITEM: BOX BOUNDS pp pp pp
-106.034 106.034
-106.034 106.034
-106.034 106.034
ITEM: ATOMS type x y z
74 -5.662 54.4049 -27.8121
0 4.80897 49.4853 -14.4755
74 18.5344 35.0623 -16.3209
74 17.5871 37.5889 -16.7239
74 16.0865 39.8088 -17.2521
74 20.5039 36.8054 -12.8394
74 19.0644 39.0309 -13.3412
74 20.1782 41.8855 -12.6075
0 7.23635 51.4079 -5.63931
0 9.7622 26.8311 -8.92271
0 17.8881 36.4072 -4.16765
0 25.3375 41.8526 -2.57997
74 9.72044 38.528 2.09732
74 30.9757 23.1522 -3.7802
74 14.0609 36.0345 6.33058
0 27.5158 38.3776 0.695883
0 16.9235 9.90423 -1.82107
74 35.5544 24.1732 -2.79587
74 30.6426 24.3887 -1.30049
74 28.3366 25.254 -0.102767
0 14.2582 -3.75835 0.750008
0 21.4585 -3.7106 -3.22264
0 18.6241 -2.93617 -2.04557
74 31.5789 56.0046 17.6307
0 23.6368 -7.18567 0.0532181
0 30.2108 -0.636222 -1.1935
0 26.9489 1.40523 2.37651
74 35.8503 3.3634 -0.633954
0 26.5214 2.67224 4.76946
0 39.1321 -11.9989 2.22965
0 12.9163 -18.362 11.3828
0 25.607 -13.1984 13.0093
74 37.0045 -27.3583 25.9202
74 55.438 -16.3313 24.8215
