ITEM: TIME
40.0
ITEM: TIMESTEP
0
ITEM: NUMBER OF ATOMS
22
ITEM: BOX BOUNDS pp pp pp
-106.034 106.034
-106.034 106.034
-106.034 106.034
ITEM: ATOMS type x y z
74 -2.98127 3.32029 16.3595
0 1.40178 -0.413413 0.469995
74 2.99303 -3.00853 9.87422
74 4.6534 -0.136815 6.64049
0 19.6128 11.7081 -7.89442
0 19.8274 -1.56311 -17.077
0 20.8666 7.74508 -4.31967
0 21.3717 13.9844 5.22293
0 18.2299 -6.30832 -9.16524
0 26.5402 12.48 -6.66591
0 29.4843 8.21185 -12.4303
0 28.3283 11.5858 0.123609
74 34.7551 -1.46275 2.17788
74 33.1262 -1.0688 0.509178
74 30.8833 -0.468806 2.67616
74 31.4121 -0.812669 8.13352
74 33.3464 9.55865 27.5865
74 34.3536 7.45646 26.1344
74 40.0636 28.8158 31.6332
74 43.0431 -12.2812 23.6078
0 49.5502 -3.71845 20.5561
0 51.6819 4.0956 15.8591
