ITEM: TIME
40.0
ITEM: TIMESTEP
0
ITEM: NUMBER OF ATOMS
22
ITEM: BOX BOUNDS pp pp pp
-106.034 106.034
-106.034 106.034
-106.034 106.034
ITEM: ATOMS type x y z
0 11.7442 -5.00194 -3.7899
0 17.1404 -6.79763 -11.2278
0 23.2698 -1.45279 -12.4491
0 22.4509 -10.6745 -13.8477
74 23.7131 -5.82826 18.6663
0 26.5054 -5.69424 -16.823
74 27.0951 -3.15388 9.78797
74 27.6482 -2.36525 7.36368
0 36.9559 4.54212 -24.1724
0 38.0506 7.34283 -14.6253
0 30.9215 -5.0538 -16.4678
74 28.7798 -4.89249 6.596
0 34.3575 -1.97723 -8.31947
74 32.125 -1.19609 6.459
74 29.9627 -3.08053 8.30517
74 31.2087 -5.41079 8.10428
74 32.6676 -3.05221 8.16683
74 33.8247 -7.16458 8.61105
74 35.8688 -4.88508 5.59101
0 40.3816 -8.20148 -15.5797
0 48.2336 -4.48447 -7.07615
74 45.1278 -36.0375 -24.598
