ITEM: TIME
40.0
ITEM: TIMESTEP
0
ITEM: NUMBER OF ATOMS
32
ITEM: BOX BOUNDS pp pp pp
-106.034 106.034
-106.034 106.034
-106.034 106.034
ITEM: ATOMS type x y z
74 13.2639 44.9653 42.0421
0 18.0851 33.2867 28.7467
74 16.4861 8.70907 32.7978
74 17.8422 11.0774 29.2656
74 33.1109 25.6118 14.2992
74 35.6605 26.7076 18.3609
74 36.9672 24.6568 12.3022
0 16.881 2.77815 10.8541
74 6.28981 17.55 -25.8497
0 19.4048 -0.556494 12.4505
0 29.7508 5.38534 14.7817
74 -2.80187 -1.58915 -11.0436
74 0.924801 -0.831051 -9.04754
0 17.0546 1.47605 1.58366
0 20.8532 -0.0955012 4.84759
0 19.6685 3.10923 0.862838
0 22.2373 2.2585 1.30063
74 -2.03699 -4.62654 -14.2522
0 23.5313 -0.355326 0.0708782
0 26.1452 1.27786 -0.649942
0 27.3749 0.557042 2.1762
74 40.025 1.39638 11.9518
0 2.72992 -12.8299 0.622937
0 24.8254 -2.96915 -1.15887
74 36.3542 -1.81751 10.8218
74 42.5668 0.215491 12.4683
0 15.9727 -5.96608 -12.2516
0 18.3229 -7.99862 -1.38477
74 38.8771 -5.12562 12.4502
0 12.0841 -9.36237 -13.1983
74 37.2812 2.83422 -15.0031
74 20.7072 -24.2115 1.28187
