ITEM: TIME
40.0
ITEM: TIMESTEP
0
ITEM: NUMBER OF ATOMS
34
ITEM: BOX BOUNDS pp pp pp
-106.034 106.034
-106.034 106.034
-106.034 106.034
ITEM: ATOMS type x y z
74 49.424 55.3573 17.3473
74 53.3262 56.229 19.3997
74 52.1977 52.1629 18.8541
74 43.3089 45.7225 14.8579
74 47.5769 47.0406 19.5358
74 47.6702 45.6796 15.3594
0 49.1056 36.2218 3.61148
0 23.9719 13.9514 13.8427
74 34.4541 22.4779 5.96938
74 42.0072 27.4844 3.71599
74 34.4504 20.0394 7.13547
74 37.0186 19.1695 7.52756
74 35.803 19.0449 9.90108
74 37.0662 21.6436 6.26215
74 38.2753 19.3969 5.13353
74 44.6694 26.8044 4.03872
0 11.8677 5.26664 0.946894
0 18.9887 1.1993 14.4829
0 18.6694 4.54695 8.25505
0 21.5966 0.388355 14.7177
0 21.037 4.55201 3.31017
0 25.55 1.2956 16.6114
0 18.6655 -2.23202 6.22012
0 24.043 -2.13825 10.8211
0 21.1158 2.02035 4.35841
74 -2.56491 -15.0353 1.76994
0 20.7138 1.12069 -4.95265
0 31.7881 -2.03941 10.4771
0 34.3173 -0.318701 9.66366
0 20.8715 -3.94262 -2.85617
74 -0.723059 -22.7899 -1.50754
0 18.8049 -3.21282 -20.0541
0 24.9681 2.76279 -25.2017
74 39.907 -7.15333 -27.668
