ITEM: TIME
40.0
ITEM: TIMESTEP
0
ITEM: NUMBER OF ATOMS
24
ITEM: BOX BOUNDS pp pp pp
-106.034 106.034
-106.034 106.034
-106.034 106.034
ITEM: ATOMS type x y z
74 16.4417 59.8443 -19.6799
74 17.2579 62.5282 -22.9783
74 2.42448 13.5714 17.1123
74 5.70652 10.8974 18.6099
74 2.81064 4.42734 17.2376
74 18.8316 19.3764 12.6031
74 -6.55531 -12.7461 18.3578
74 21.1917 15.1585 12.1796
74 22.5714 14.6669 15.0408
74 22.5514 15.7492 9.80132
74 23.8219 15.2697 12.7334
0 7.00297 -0.502039 6.22346
74 25.2211 15.266 10.3802
0 23.1843 21.4014 -4.26598
0 4.46386 2.40847 -9.76391
0 10.7326 -10.9262 13.1337
0 10.8871 -8.17303 -2.37009
0 15.0701 -3.54452 -3.44519
0 15.8405 -0.692717 -6.80849
0 21.3446 3.39825 -5.05783
0 19.972 3.01809 -2.71566
0 28.9401 9.80347 -3.84473
0 15.6722 -6.01616 -2.42407
0 19.8552 -1.38765 -3.49916
