ITEM: TIME
40.0
ITEM: TIMESTEP
0
ITEM: NUMBER OF ATOMS
30
ITEM: BOX BOUNDS pp pp pp
-106.034 106.034
-106.034 106.034
-106.034 106.034
ITEM: ATOMS type x y z
74 42.8861 9.43692 -29.1895
0 34.5345 0.417964 -18.7605
0 35.6822 6.31134 -15.0127
0 41.9826 7.07657 -18.1454
0 27.8626 -4.57682 -14.2097
74 25.3246 -26.4869 -23.7651
0 46.0091 5.31675 -15.2744
0 37.6134 -14.8478 -21.0945
0 -0.939452 0.818036 15.5333
74 28.6611 -8.37125 -7.69789
74 28.2979 -4.87166 -4.9102
74 27.0462 -6.85953 -3.31063
0 6.32062 -0.967797 12.1083
0 47.9451 -3.18302 -11.858
0 40.685 -1.39719 -8.43305
74 26.4548 -10.9317 -1.84967
74 57.1599 -5.09201 -16.497
74 13.6067 -35.5737 -8.45719
74 15.094 -31.3693 -8.61051
74 3.26641 -15.3283 10.9472
74 12.7651 -36.2773 -4.11812
0 39.5828 -30.1428 -9.67614
0 24.8913 -38.4132 -2.86528
0 19.9219 -37.5 -1.44293
0 25.2794 -37.5813 -0.282355
74 56.1256 -7.51774 5.38372
0 39.0447 -33.5551 1.20104
74 60.3151 -4.36103 9.33787
74 19.7388 -38.9816 22.2739
74 85.3336 -3.81655 17.2353
