ITEM: TIME
40.0
ITEM: TIMESTEP
0
ITEM: NUMBER OF ATOMS
26
ITEM: BOX BOUNDS pp pp pp
-106.034 106.034
-106.034 106.034
-106.034 106.034
ITEM: ATOMS type x y z
0 0.37707 0.719687 0.631966
74 18.8909 -21.0826 -8.35756
74 29.0568 2.09347 -25.5677
74 39.0069 -3.66096 -37.1782
0 29.9079 -5.57237 0.909564
0 31.8335 2.32232 -6.94589
0 28.9331 5.47331 12.0905
0 29.3192 -9.04709 20.8686
74 38.4815 -5.26284 -7.1578
74 39.0334 -2.63403 -6.78959
0 28.2435 0.506693 27.0179
0 39.2042 15.7423 0.376706
0 37.0351 14.3619 1.32736
0 33.3306 19.2242 18.379
0 34.9213 -4.68639 11.0003
74 42.8013 -1.17516 -3.97883
74 37.3669 5.40543 9.09758
74 36.341 5.3352 12.1459
74 36.7275 8.42767 12.0073
0 37.6231 2.8253 20.1685
74 39.4382 5.14135 13.0419
74 38.2953 5.07013 15.9532
74 39.7138 6.8926 8.50107
0 38.2847 9.12018 20.28
0 43.4093 -10.3182 9.01528
74 34.6981 3.26532 49.9884
