ITEM: TIME
40.0
ITEM: TIMESTEP
0
ITEM: NUMBER OF ATOMS
42
ITEM: BOX BOUNDS pp pp pp
-106.034 106.034
-106.034 106.034
-106.034 106.034
ITEM: ATOMS type x y z
0 -0.929505 -0.4864 1.15434
74 2.89687 -2.47281 -4.61988
74 44.8035 24.2287 6.47747
74 44.5672 24.2124 9.19378
74 24.0917 4.94386 -18.4557
74 32.0147 9.94271 -18.5378
0 23.9365 -0.989004 -2.02715
74 28.3144 4.39946 -18.8458
74 30.6708 5.62577 -18.8044
0 30.3714 4.30923 8.85299
74 33.7695 7.81095 -19.0738
0 35.4519 7.90183 5.48001
0 33.7921 1.48967 0.60583
74 32.8972 5.56943 -20.5666
0 36.4325 3.232 0.497888
0 34.3454 3.62706 2.23056
0 36.5852 5.58527 -4.19159
0 33.2388 -0.647723 -1.0189
0 35.5263 -1.15072 0.405536
0 35.9268 -1.3666 6.71974
0 38.1666 0.591613 0.297594
0 36.0795 0.986669 2.03026
0 37.6134 -1.54578 -1.32713
0 40.2538 0.196557 -1.43507
0 41.0549 -0.235211 11.1933
0 45.3819 1.32795 3.03852
0 50.4623 4.92056 -0.334466
0 48.5755 5.20767 4.5553
0 37.308 -6.25232 8.05182
74 41.1765 -4.10314 -21.565
74 42.1042 -2.14719 -19.7538
74 51.6178 -0.214708 17.8883
0 46.5627 -3.44983 1.2135
74 51.6182 -2.64127 22.3167
74 52.9249 -7.42239 20.6299
74 51.3447 -4.73301 20.5325
74 51.4704 -4.90105 23.7703
74 54.0381 -3.05309 23.5013
74 54.1904 -3.28344 26.7134
74 56.6595 -1.41369 23.6373
74 57.5519 -6.1245 21.9118
74 34.5227 -20.6717 -37.484
