ITEM: TIME
40.0
ITEM: TIMESTEP
0
ITEM: NUMBER OF ATOMS
36
ITEM: BOX BOUNDS pp pp pp
-106.034 106.034
-106.034 106.034
-106.034 106.034
ITEM: ATOMS type x y z
0 2.46927 0.0578895 -0.541078
0 13.9266 5.03878 9.67724
0 12.7741 1.25206 3.01041
0 20.4279 12.6439 -3.28055
0 18.657 -2.51901 4.13533
74 26.7347 -6.43225 28.9914
74 9.39818 -24.3388 0.820927
74 11.4301 -23.3826 4.56589
0 21.8583 -8.62733 2.54295
0 24.6455 -4.25135 7.08965
74 11.402 -25.9166 -0.254076
74 12.6121 -26.6028 1.88745
0 23.6358 -11.2475 6.72953
74 21.5053 -3.55134 -16.1039
74 22.8284 -1.20201 -16.0074
74 25.652 2.77652 -16.7176
74 28.4219 4.99873 -14.1743
0 20.7431 -17.6622 0.353414
0 40.299 0.76122 -8.98347
0 46.25 4.27699 -10.5064
0 43.5002 -5.34711 -10.5758
0 46.875 -2.12988 -12.9867
74 36.8342 -20.516 -23.9824
0 49.2028 -0.66066 -20.2349
74 34.3399 -25.9906 -20.6329
74 36.5839 -22.6784 -25.7687
74 36.0611 -23.3683 -20.8727
74 40.114 -22.4715 -22.0067
74 39.903 -24.6523 -23.7312
0 54.8373 -3.26105 -27.2461
0 32.6599 -35.374 -36.7311
74 64.1385 2.25703 -32.2668
0 32.1324 -45.5676 -45.8782
0 34.7086 -45.2691 -44.9903
74 41.2812 -61.7144 -26.2446
74 66.9737 -14.3827 -77.5862
