ITEM: TIME
40.0
ITEM: TIMESTEP
0
ITEM: NUMBER OF ATOMS
18
ITEM: BOX BOUNDS pp pp pp
-68.0518 68.0518
-68.0518 68.0518
-68.0518 68.0518
ITEM: ATOMS type x y z
74 3.49157 24.1402 -8.69085
0 9.19263 17.3115 -9.2876
74 23.5787 28.5629 -8.3038
0 13.5386 12.8796 -8.04334
0 3.3877 -0.0470932 -2.52685
0 6.22575 1.94011 -5.3614
74 20.6453 15.971 -9.36736
0 5.27109 0.096779 -0.54027
0 7.15448 0.240651 1.44631
0 13.7852 6.0584 -9.0439
74 23.5683 13.7016 -11.7889
0 6.19983 -1.60268 6.26744
74 28.0625 11.4742 -12.2147
74 3.39358 -6.6878 26.3119
74 16.4418 3.78049 18.3105
0 27.2156 0.244272 3.86161
74 40.2831 -15.8636 0.710114
74 29.9388 -34.8014 3.21353
