ITEM: TIME
40.0
ITEM: TIMESTEP
0
ITEM: NUMBER OF ATOMS
18
ITEM: BOX BOUNDS pp pp pp
-68.0518 68.0518
-68.0518 68.0518
-68.0518 68.0518
ITEM: ATOMS type x y z
74 16.1542 -5.75608 -32.9524
0 10.3067 2.09462 -18.9508
74 26.5726 10.5465 -24.0167
74 27.3059 8.87263 -20.3732
74 -8.52542 9.95432 5.40763
74 -0.896779 15.5531 4.73704
0 12.7289 -0.542466 -7.33365
0 5.85583 6.84835 -0.557566
74 2.17754 13.479 6.8176
0 17.5204 -6.19467 -9.61573
0 13.9375 -2.99751 -7.49611
74 13.7365 -19.5442 -10.2811
0 5.94127 -1.48757 2.70693
0 3.5669 -0.745447 4.6641
0 9.77421 0.4797 1.4919
0 5.02547 1.96395 5.40623
74 28.3096 -1.29426 -12.1794
74 12.4157 -8.32662 12.1173
