ITEM: TIME
40.0
ITEM: TIMESTEP
0
ITEM: NUMBER OF ATOMS
18
ITEM: BOX BOUNDS pp pp pp
-68.0518 68.0518
-68.0518 68.0518
-68.0518 68.0518
ITEM: ATOMS type x y z
74 26.6448 20.4672 -11.5214
74 8.51986 13.0601 -4.35828
74 37.7378 9.31942 -9.89903
74 31.4065 -1.78118 -13.387
0 14.8496 2.7392 -6.16588
74 33.7402 -2.61277 -12.3008
74 18.783 -15.1186 -15.5882
74 14.4956 -15.7217 -15.6476
0 -0.533977 0.625193 0.684308
0 13.7625 -4.00493 -5.20364
0 15.7011 -1.8967 -3.85594
0 13.2296 -0.549026 -2.40882
0 2.88185 7.53893 3.54132
0 16.1626 -4.59397 -4.01757
0 23.0444 -5.18108 -5.56413
0 15.3941 -12.5181 2.04944
74 -1.75068 -21.5187 10.8361
74 -0.13905 -19.1833 10.6963
