ITEM: TIME
40.0
ITEM: TIMESTEP
0
ITEM: NUMBER OF ATOMS
12
ITEM: BOX BOUNDS pp pp pp
-68.0518 68.0518
-68.0518 68.0518
-68.0518 68.0518
ITEM: ATOMS type x y z
0 8.09894 1.89386 12.7301
0 7.046 4.20413 11.6966
0 9.7927 3.71764 5.38716
0 7.56171 6.35316 1.4338
0 10.4627 -1.65219 9.66576
74 12.8565 -2.06543 -4.10202
74 20.6497 12.2857 -2.43737
74 16.514 -3.98261 -2.35931
74 23.179 11.6835 -8.44596
0 24.7181 -2.75282 7.22296
74 24.9676 3.08988 -10.1035
74 34.913 -1.0781 2.66193
