ITEM: TIME
40.0
ITEM: TIMESTEP
0
ITEM: NUMBER OF ATOMS
14
ITEM: BOX BOUNDS pp pp pp
-68.0518 68.0518
-68.0518 68.0518
-68.0518 68.0518
ITEM: ATOMS type x y z
74 -24.1533 26.4079 0.202595
74 14.4244 27.2965 14.1015
74 -1.90665 10.7849 -7.45666
0 15.6713 10.894 3.11516
0 1.77877 -0.21511 -0.655247
0 5.68401 6.24919 -6.18956
0 4.32673 -1.20928 -0.471089
0 8.07555 0.212689 -3.85881
0 5.5956 -7.14075 4.35825
74 24.8968 0.147405 2.88405
74 10.1463 -15.7262 11.2882
74 14.1136 -7.24548 -1.24549
74 18.5274 -10.579 11.9532
0 15.7874 -11.1174 5.09488
