ITEM: TIME
40.0
ITEM: TIMESTEP
0
ITEM: NUMBER OF ATOMS
10
ITEM: BOX BOUNDS pp pp pp
-68.0518 68.0518
-68.0518 68.0518
-68.0518 68.0518
ITEM: ATOMS type x y z
0 10.7674 -2.76182 -10.2182
74 -16.5863 24.7852 -5.19788
74 19.7447 -1.33046 -2.67401
0 9.41023 -4.94064 0.7888
74 19.6852 -4.70477 -0.587018
0 10.9351 -6.71386 2.21873
0 8.26883 -0.413837 5.86779
0 7.96121 -6.91971 8.63814
74 -3.73386 39.8076 20.4946
74 13.8781 -9.51967 29.5405
