ITEM: TIME
40.0
ITEM: TIMESTEP
0
ITEM: NUMBER OF ATOMS
14
ITEM: BOX BOUNDS pp pp pp
-68.0518 68.0518
-68.0518 68.0518
-68.0518 68.0518
ITEM: ATOMS type x y z
0 14.7945 -9.79909 -9.69706
0 14.6023 -4.381 -1.90069
0 11.6008 -3.93478 -0.999649
0 0.985071 -0.538566 0.8764
0 17.8253 -8.49612 -0.246518
74 13.4062 5.75021 2.84966
74 16.8868 8.46835 2.50183
0 17.6184 -3.95262 2.37405
74 17.1459 4.91367 5.04605
74 18.3328 10.9098 5.81277
0 26.2087 3.79573 4.91206
74 22.1398 10.021 7.97504
74 9.90979 9.00127 16.4875
74 17.4469 14.2111 18.3738
