ITEM: TIME
40.0
ITEM: TIMESTEP
0
ITEM: NUMBER OF ATOMS
8
ITEM: BOX BOUNDS pp pp pp
-68.0518 68.0518
-68.0518 68.0518
-68.0518 68.0518
ITEM: ATOMS type x y z
74 20.0628 19.9773 10.0851
74 7.56653 -23.4525 19.1855
0 18.9904 6.47942 6.99786
0 3.06279 0.299967 -0.669653
0 5.8043 -0.412437 0.74299
0 12.6624 -4.18848 3.26004
74 29.734 -9.23326 12.305
74 8.27563 14.2898 -10.7947
