ITEM: TIME
40.0
ITEM: TIMESTEP
0
ITEM: NUMBER OF ATOMS
14
ITEM: BOX BOUNDS pp pp pp
-68.0518 68.0518
-68.0518 68.0518
-68.0518 68.0518
ITEM: ATOMS type x y z
74 49.6995 71.9136 -61.0812
74 10.7768 12.6882 -15.7861
0 5.54113 -1.22168 -2.44912
0 4.82173 -0.891844 0.616081
0 7.18331 1.1925 0.946055
0 14.7841 4.04186 -10.6548
0 9.71516 0.889603 -0.0618984
74 15.7921 0.862743 -5.91793
74 18.8277 2.33113 -8.46113
0 8.23801 -7.66986 3.78199
0 30.3488 2.91108 -8.51487
74 28.0405 10.6627 26.7588
74 38.3788 0.784456 -13.8957
74 38.0303 -3.6255 -13.6017
