ITEM: TIME
40.0
ITEM: TIMESTEP
0
ITEM: NUMBER OF ATOMS
10
ITEM: BOX BOUNDS pp pp pp
-68.0518 68.0518
-68.0518 68.0518
-68.0518 68.0518
ITEM: ATOMS type x y z
74 3.37656 5.09684 -4.81277
0 7.83641 2.50639 -1.69026
0 0.471381 -0.947179 -0.483236
0 9.80624 -1.45397 -1.00236
74 27.3119 -10.919 1.31433
0 39.4298 -9.46737 -0.88345
74 40.2874 -18.5186 6.36252
74 41.9772 -18.7334 9.99152
74 40.4647 -16.5885 9.0619
0 35.0136 -10.9438 -11.3029
