ITEM: TIME
40.0
ITEM: TIMESTEP
0
ITEM: NUMBER OF ATOMS
18
ITEM: BOX BOUNDS pp pp pp
-68.0518 68.0518
-68.0518 68.0518
-68.0518 68.0518
ITEM: ATOMS type x y z
74 8.96772 -11.618 27.0762
74 9.26012 -10.5142 24.6392
0 12.4675 11.3169 6.52265
0 0.616015 -0.970676 -1.00866
0 3.27242 -0.555397 -1.54285
74 17.8616 11.4244 -1.4047
74 8.0938 7.45138 -8.14656
74 18.0528 7.50924 -3.16092
0 14.169 2.17793 -6.18785
74 10.9349 8.92437 -11.2003
0 18.4996 -22.0433 5.89542
0 10.5187 -10.3497 -5.94566
0 12.9042 -11.0066 -3.9716
0 14.516 -12.3221 -6.35711
0 21.7232 -24.6744 1.1244
74 15.4127 -20.6758 -6.28586
74 24.7806 -29.9147 -3.24346
74 25.1298 -28.8428 -5.73026
