ITEM: TIME
40.0
ITEM: TIMESTEP
0
ITEM: NUMBER OF ATOMS
6
ITEM: BOX BOUNDS pp pp pp
-68.0518 68.0518
-68.0518 68.0518
-68.0518 68.0518
ITEM: ATOMS type x y z
0 0.371533 -0.515304 1.39854
0 20.0075 4.50066 -4.08796
74 22.7228 -0.825954 -14.3199
74 25.117 -1.31222 -15.612
0 17.1469 -8.56635 -0.707015
74 30.0913 -29.5035 -3.51111
