ITEM: TIME
40.0
ITEM: TIMESTEP
0
ITEM: NUMBER OF ATOMS
10
ITEM: BOX BOUNDS pp pp pp
-68.0518 68.0518
-68.0518 68.0518
-68.0518 68.0518
ITEM: ATOMS type x y z
74 22.327 -25.7155 -18.5742
0 1.63973 0.354632 -0.325371
0 16.8882 1.36747 2.30405
0 25.3979 0.875661 6.48905
0 23.0209 0.26879 5.26597
74 42.6291 3.37083 2.73713
0 32.4044 -6.76893 6.90486
74 34.2487 -16.8842 6.30639
74 38.0488 14.0968 15.2078
74 0.590599 -31.2303 22.836
