ITEM: TIME
40.0
ITEM: TIMESTEP
0
ITEM: NUMBER OF ATOMS
14
ITEM: BOX BOUNDS pp pp pp
-85.4604 85.4604
-85.4604 85.4604
-85.4604 85.4604
ITEM: ATOMS type x y z
74 12.4473 -7.88472 -25.8212
74 17.207 -9.03483 -17.9577
74 -3.35261 -3.07906 15.8338
0 15.2577 -1.97205 -8.13361
74 2.76118 1.59832 10.9279
74 12.7727 3.11678 -0.460855
0 16.9015 9.27151 8.94498
0 16.8485 -7.47233 -2.90574
0 23.5152 10.6704 10.3207
0 24.0278 3.25564 8.11312
0 13.4579 -7.03976 31.1609
0 26.8576 -5.77515 7.33306
74 27.1675 -16.7859 9.93368
74 30.4453 -8.25481 28.2574
