ITEM: TIME
40.0
ITEM: TIMESTEP
0
ITEM: NUMBER OF ATOMS
14
ITEM: BOX BOUNDS pp pp pp
-85.4604 85.4604
-85.4604 85.4604
-85.4604 85.4604
ITEM: ATOMS type x y z
0 8.94087 -1.1487 -11.0991
0 14.402 -12.6126 -5.94055
0 10.0116 -4.52727 -4.20332
74 18.0095 1.00148 -10.6994
74 20.5095 5.31583 -10.3986
0 16.9765 -4.81919 -5.4278
0 14.1748 -3.20142 -1.29437
0 24.5547 15.4 -3.96282
0 22.707 23.412 -4.1092
74 18.3579 15.993 13.4098
74 15.4261 14.4519 17.1925
74 26.1318 25.477 10.0531
74 28.0597 40.9876 11.6292
74 18.2217 -11.3005 29.629
