ITEM: TIME
40.0
ITEM: TIMESTEP
0
ITEM: NUMBER OF ATOMS
32
ITEM: BOX BOUNDS pp pp pp
-85.4604 85.4604
-85.4604 85.4604
-85.4604 85.4604
ITEM: ATOMS type x y z
74 -21.077 103.355 -19.5372
74 14.1975 27.629 18.766
74 21.7914 24.1973 29.0328
74 -15.4951 8.07919 -15.3127
74 -1.58102 16.6217 -7.44437
74 0.270384 -6.89746 9.1651
0 -12.2772 0.0909861 -16.2573
0 6.47081 -0.654146 11.6285
74 -12.3967 -9.92104 -13.5785
74 5.16982 -7.08354 8.30687
74 4.1064 -7.7602 10.6356
0 6.9387 -1.81713 7.33051
0 8.14923 8.36748 -4.61877
0 10.3606 6.58378 3.09869
0 13.4196 -3.82835 8.57828
0 10.8285 5.42079 -1.19928
0 15.2406 8.25017 -1.48521
0 1.29506 -2.03755 -11.876
0 5.70722 0.791832 -12.1619
0 12.8531 -2.57104 3.51346
0 10.6858 2.3639 -7.38303
0 15.6204 0.78473 0.574889
0 11.0657 -5.10154 -5.32294
0 14.9659 -4.26041 1.86813
0 11.7202 -0.0564052 -6.61618
74 17.4432 7.21406 -5.52475
74 22.3447 4.41821 -3.57064
74 2.71544 -10.9765 -26.978
74 -0.931737 -18.4727 -29.7833
74 3.21986 -12.1517 -31.2194
74 31.3548 -26.2763 7.28884
74 35.0543 -28.307 8.20569
