ITEM: TIME
40.0
ITEM: TIMESTEP
0
ITEM: NUMBER OF ATOMS
16
ITEM: BOX BOUNDS pp pp pp
-85.4604 85.4604
-85.4604 85.4604
-85.4604 85.4604
ITEM: ATOMS type x y z
0 10.4575 4.797 -11.0895
0 13.9638 2.3355 7.41267
0 25.7352 9.8979 -10.057
0 4.33284 -5.31493 3.34646
0 28.509 5.72849 -1.39033
74 33.6321 10.0892 -18.9933
74 32.0601 10.9176 -16.9055
74 31.5394 8.74238 -15.254
0 19.5281 -2.84985 8.91736
0 28.2784 0.974502 -3.60361
74 33.0797 7.85849 -17.3839
74 22.0374 -14.6099 7.67547
74 25.8895 -13.2523 8.75645
74 32.28 -10.15 12.7224
0 37.0696 -7.7552 -12.929
74 22.0417 -13.5755 -21.651
