ITEM: TIME
40.0
ITEM: TIMESTEP
0
ITEM: NUMBER OF ATOMS
30
ITEM: BOX BOUNDS pp pp pp
-85.4604 85.4604
-85.4604 85.4604
-85.4604 85.4604
ITEM: ATOMS type x y z
74 5.53751 -4.02249 15.8216
74 8.58516 -5.08327 12.7566
74 4.32225 -3.02244 10.7431
74 19.8944 36.6644 0.526231
0 3.45605 1.36396 2.54976
0 9.67393 0.279245 3.03793
0 4.79362 -0.728119 1.38851
0 9.81732 -0.29796 -0.0710093
0 10.5379 2.18943 -3.7223
0 20.4419 3.62695 -3.5324
0 24.7451 1.56972 -1.34063
74 21.6832 33.2592 -6.72185
0 18.6706 2.07723 -4.93773
74 6.35985 17.5515 -8.98784
0 10.8645 -6.60904 -6.90778
74 9.49265 16.42 -12.0022
74 7.03403 19.8892 -12.7711
74 48.3646 -2.32098 -10.2781
0 18.9176 8.56688 -14.188
74 56.1079 -4.88766 -17.0023
0 36.2698 -5.61265 -20.4233
0 44.4024 -5.72485 -21.6387
74 31.7559 -0.89223 -22.4579
0 49.8202 5.99117 -23.564
0 55.4211 9.48592 -25.5659
0 49.9635 5.41396 -26.6729
74 41.6128 -0.11776 -33.5724
74 41.8303 -2.42131 -37.6888
74 39.7971 0.369476 -35.361
74 43.2919 -0.663739 -36.2331
