ITEM: TIME
40.0
ITEM: TIMESTEP
0
ITEM: NUMBER OF ATOMS
20
ITEM: BOX BOUNDS pp pp pp
-85.4604 85.4604
-85.4604 85.4604
-85.4604 85.4604
ITEM: ATOMS type x y z
74 20.9769 -3.91443 -15.3402
74 -2.15933 -0.923269 -8.72352
0 33.4743 -0.669341 -4.40723
0 10.0861 3.94702 -3.90583
0 1.40095 0.176527 0.343322
0 27.235 4.44882 2.118
74 39.6028 -2.19161 3.89875
0 29.5947 -0.0880218 4.09429
74 41.552 -0.573926 2.84589
74 38.8524 0.213352 3.05632
74 37.5441 1.53586 5.07975
74 22.1635 5.80605 5.19068
0 34.8509 12.458 8.8759
74 38.7445 -0.73552 6.17081
0 25.715 0.493297 12.5958
74 17.0859 2.0549 12.2849
0 34.4328 -9.97696 11.103
0 30.5205 4.84511 16.8482
74 21.7273 -6.93677 16.62
0 33.6094 -10.1543 19.2834
