ITEM: TIME
40.0
ITEM: TIMESTEP
0
ITEM: NUMBER OF ATOMS
14
ITEM: BOX BOUNDS pp pp pp
-85.4604 85.4604
-85.4604 85.4604
-85.4604 85.4604
ITEM: ATOMS type x y z
74 2.65482 -1.17235 11.8067
74 10.7942 0.80721 4.79365
0 -5.98512 -11.465 -4.80633
0 8.49359 0.834024 -2.10552
0 10.6086 -4.01117 -0.653868
74 22.6693 6.4864 7.77641
74 -6.51892 -9.68513 -20.2448
0 12.7237 -8.85635 0.797787
74 26.0806 17.9298 -7.33274
0 13.0691 -6.80801 -6.67202
0 15.417 -5.46886 -2.17251
0 15.2511 -18.005 1.08843
74 19.5299 -30.9088 -15.0967
74 47.2293 -14.3531 -6.33907
