ITEM: TIME
40.0
ITEM: TIMESTEP
0
ITEM: NUMBER OF ATOMS
22
ITEM: BOX BOUNDS pp pp pp
-85.4604 85.4604
-85.4604 85.4604
-85.4604 85.4604
ITEM: ATOMS type x y z
74 -5.35023 5.94689 40.0575
74 -1.2447 -8.71451 50.0056
74 13.8216 28.0464 -3.53934
74 11.9427 17.2626 6.02861
0 15.6007 25.4135 -14.3496
74 30.3368 50.8388 -29.8368
74 12.1295 29.7044 -32.3957
0 21.097 30.5225 -17.7138
0 4.98595 -2.33265 1.37062
74 20.2377 8.37422 9.69445
74 21.4659 9.12183 7.3214
74 27.1608 39.792 -32.9428
0 7.08904 -3.46396 -5.10144
0 8.39463 -3.98116 -2.26471
0 10.4498 -1.62999 -2.7819
0 10.5628 3.70012 -7.16
0 10.7563 9.95404 -16.7046
0 12.9479 -7.99448 7.26966
0 15.277 1.53442 -7.9586
0 20.4018 -13.7532 1.02317
74 18.7617 -17.1699 -5.27881
74 35.7881 -16.2856 -23.5658
