ITEM: TIME
40.0
ITEM: TIMESTEP
0
ITEM: NUMBER OF ATOMS
16
ITEM: BOX BOUNDS pp pp pp
-85.4604 85.4604
-85.4604 85.4604
-85.4604 85.4604
ITEM: ATOMS type x y z
74 -4.05771 -2.27807 122.87
0 1.3437 0.461526 0.0481242
0 4.4103 -2.18988 7.20376
0 26.3138 -2.11484 11.8432
0 20.5315 8.38065 -4.19587
74 11.9288 17.0161 -22.2057
74 11.4956 14.4062 -21.5939
74 13.3122 13.0589 -19.3072
0 23.3126 4.54619 -6.45898
0 25.8528 -5.89423 3.28835
74 13.8316 12.9323 -22.0072
0 29.5542 -4.50097 -3.38447
0 16.7185 6.06961 -29.3251
74 37.618 0.339554 -34.8693
74 22.9665 -12.1894 -25.8321
74 25.0721 -16.643 -68.1999
