ITEM: TIME
30.0
ITEM: TIMESTEP
0
ITEM: NUMBER OF ATOMS
16
ITEM: BOX BOUNDS pp pp pp
-85.6594 85.6594
-89.9423 89.9423
-94.2253 94.2253
ITEM: ATOMS type x y z
26 -19.2356 -0.686411 -11.0588
26 -4.95981 -3.71309 -8.28919
0 -7.03757 -5.01128 3.99416
26 -1.84397 2.01732 0.304389
0 -2.73221 2.16424 14.0401
0 -2.73221 7.90466 -0.311248
0 -1.29709 -7.88148 12.605
0 0.138031 -3.57617 5.4293
26 0.0354449 0.16593 -0.910663
0 0.138031 2.16424 5.4293
26 -0.603191 13.6481 3.31151
0 1.57315 -7.88148 6.86443
0 1.57315 3.59935 9.7347
26 5.87416 0.0321875 -14.0012
26 4.45872 -0.0571661 -16.7978
26 26.651 -2.88893 -10.3441
