ITEM: TIME
30.0
ITEM: TIMESTEP
0
ITEM: NUMBER OF ATOMS
28
ITEM: BOX BOUNDS pp pp pp
-85.6594 85.6594
-89.9423 89.9423
-94.2253 94.2253
ITEM: ATOMS type x y z
26 -27.7338 -17.8896 9.55883
26 -12.6112 1.43688 -10.4188
26 -12.8228 5.22617 0.334744
26 -12.7641 7.2542 3.94427
26 -8.40918 3.68448 -15.5148
0 -4.83484 -18.6133 11.7134
0 -4.83484 -10.0025 -11.2487
26 -4.10608 -22.119 13.1698
0 -3.39973 -5.69709 -9.81353
0 -1.96462 -4.26196 -5.50815
0 -3.39973 2.91369 -1.20277
0 -1.96462 7.21907 0.232356
26 -3.39178 32.386 8.18508
0 0.90561 -1.3917 -16.9892
26 0.179057 -1.39597 10.9669
0 0.90561 1.47856 3.10261
0 0.90561 1.47856 5.97286
26 3.07863 -17.1629 9.52972
0 2.34072 -5.69709 1.66748
0 3.77584 4.34881 -2.6379
0 2.34072 5.78394 1.66748
0 5.21095 5.78394 1.66748
26 8.92747 -17.2196 5.38202
0 9.51629 4.34881 3.10261
26 8.08401 2.15717 22.4985
26 13.2048 4.38302 -16.1647
26 17.551 4.94226 -1.14964
26 25.3109 26.6251 -22.0479
