ITEM: TIME
30.0
ITEM: TIMESTEP
0
ITEM: NUMBER OF ATOMS
8
ITEM: BOX BOUNDS pp pp pp
-85.6594 85.6594
-89.9423 89.9423
-94.2253 94.2253
ITEM: ATOMS type x y z
26 -21.8264 3.07529 -3.82149
26 -16.0353 -15.6141 14.7856
0 0.458757 -1.98244 -8.17998
0 1.8939 -3.41757 -3.87453
26 6.92702 10.2215 -0.903652
26 7.57247 14.5524 12.6134
0 10.5048 -3.41757 -6.74483
0 10.5048 -3.41757 -3.87453
