ITEM: TIME
30.0
ITEM: TIMESTEP
0
ITEM: NUMBER OF ATOMS
16
ITEM: BOX BOUNDS pp pp pp
-85.6594 85.6594
-89.9423 89.9423
-94.2253 94.2253
ITEM: ATOMS type x y z
26 -17.1257 30.4535 -25.9475
0 -9.27452 -9.73345 7.71379
0 -3.53402 -3.99283 4.84355
0 -3.53402 -1.12252 4.84355
0 -3.53402 7.4884 1.97332
26 -1.43825 -24.0767 6.95182
0 -0.663767 -1.12252 4.84355
0 -0.663767 4.61809 1.97332
26 1.5446 -8.2929 24.2756
0 2.20648 -3.99283 7.71379
0 2.20648 7.4884 -3.76715
26 4.3007 -1.15372 -1.72257
26 3.66345 6.82086 -27.4109
26 5.64543 -2.56862 -3.05187
26 9.98615 -1.87494 -0.916253
26 10.2148 1.06178 -2.31603
