ITEM: TIME
30.0
ITEM: TIMESTEP
0
ITEM: NUMBER OF ATOMS
8
ITEM: BOX BOUNDS pp pp pp
-85.6594 85.6594
-89.9423 89.9423
-94.2253 94.2253
ITEM: ATOMS type x y z
26 -8.2307 13.8882 4.88605
26 -5.32379 -17.6625 -5.0955
26 -3.95652 -16.2386 -6.47502
0 -0.383558 2.41294 8.5125
0 -1.81867 3.84806 9.94762
0 5.35689 -0.45729 -2.9685
0 6.792 -4.76264 -1.53338
26 7.56434 18.9718 -7.27377
