ITEM: TIME
30.0
ITEM: TIMESTEP
0
ITEM: NUMBER OF ATOMS
22
ITEM: BOX BOUNDS pp pp pp
-85.6594 85.6594
-89.9423 89.9423
-94.2253 94.2253
ITEM: ATOMS type x y z
26 -33.0277 34.1992 -20.7385
26 -12.1823 1.02642 0.0663549
26 -13.6696 1.85265 3.82726
26 -11.5122 12.7 12.3225
26 -12.9197 12.5103 15.2257
0 -7.19749 7.59309 5.86956
0 -4.32724 1.85247 -2.74129
0 -0.0218526 -5.32329 -4.17643
0 2.8484 -13.9342 4.43442
0 2.8484 -8.1936 -1.30615
0 1.41328 -9.62875 0.128995
0 1.41328 -6.75844 0.128995
0 1.41328 -3.88814 0.128995
0 1.41328 -3.88814 2.99928
0 4.28353 -9.62875 0.128995
0 4.28353 -6.75844 0.128995
26 3.52075 13.3285 3.75754
26 10.7792 -1.02757 -15.0002
26 13.55 -22.5124 0.840893
26 13.6515 16.9656 17.332
26 17.0018 -24.4994 0.91605
26 16.4378 14.0128 -24.274
