ITEM: TIME
30.0
ITEM: TIMESTEP
0
ITEM: NUMBER OF ATOMS
18
ITEM: BOX BOUNDS pp pp pp
-85.6594 85.6594
-89.9423 89.9423
-94.2253 94.2253
ITEM: ATOMS type x y z
26 -8.18021 9.6 -10.7287
26 -8.96121 22.4081 25.8424
26 -6.83014 -14.9159 -19.3735
0 -6.07301 -14.1441 -16.4554
26 -6.07276 3.83088 5.73763
0 -3.20274 -5.53313 -4.9745
26 -3.81516 -7.74777 7.88076
26 -4.56541 -7.72644 10.055
0 -4.63788 -4.09798 -12.15
0 -4.63788 -4.09798 -9.27983
0 -1.76761 -4.09798 -12.15
0 3.97291 -15.5792 -6.40961
26 5.40803 21.0659 7.27527
0 8.2783 0.207485 3.63615
0 6.84317 7.38326 5.07125
26 9.73412 3.7523 -5.65326
26 11.9238 5.17951 20.8647
0 12.5837 4.51295 10.8117
