ITEM: TIME
30.0
ITEM: TIMESTEP
0
ITEM: NUMBER OF ATOMS
24
ITEM: BOX BOUNDS pp pp pp
-85.6594 85.6594
-89.9423 89.9423
-94.2253 94.2253
ITEM: ATOMS type x y z
26 -13.0382 -30.6569 17.489
26 -12.2598 23.8957 25.3299
26 -9.80162 15.0965 4.31571
26 -5.83228 -0.533357 -1.15602
26 -6.68049 13.1567 5.87396
26 -5.83604 21.1392 11.6642
0 -2.97466 8.86072 3.80345
26 -3.73145 14.5988 20.2763
0 -0.104451 -11.2309 -7.6776
0 -0.104451 -11.2309 0.933186
0 -1.53956 -4.05535 -6.24247
0 -0.104451 0.250009 0.933186
0 -0.104451 0.250009 12.4142
0 -0.104451 3.12025 0.933186
0 2.76576 0.250009 0.933186
0 2.76576 3.12025 -1.93708
0 2.76576 3.12025 0.933186
26 4.96168 -30.6382 -9.12638
0 5.63597 -11.2309 -13.4181
26 4.23137 2.47507 -11.2276
0 8.50618 -11.2309 -4.80734
26 8.57335 3.89344 -9.79461
26 10.6199 -6.29395 -16.2997
26 11.3907 3.87451 -24.1457
