ITEM: TIME
30.0
ITEM: TIMESTEP
0
ITEM: NUMBER OF ATOMS
32
ITEM: BOX BOUNDS pp pp pp
-85.6594 85.6594
-89.9423 89.9423
-94.2253 94.2253
ITEM: ATOMS type x y z
26 -21.0937 -10.4797 15.2227
26 -21.0429 6.77385 3.77338
26 -19.6877 8.16278 5.13022
0 -11.8201 -0.431486 5.95118
0 -11.8201 -0.431486 8.82139
26 -11.1633 -14.1199 30.3479
0 -10.385 -1.86663 7.38628
0 -6.07965 2.4388 3.08098
0 -3.20941 -3.30177 -8.39985
0 -4.64453 -4.73691 -6.96475
0 -4.64453 -1.86663 -1.22433
26 -0.343874 -18.4276 -20.6371
26 -1.78076 -9.69751 -13.4721
0 -1.77429 -4.73691 -9.83495
0 -1.77429 -4.73691 -6.96475
26 0.46741 5.2758 -16.291
26 0.418258 11.043 -0.579527
0 2.53106 -6.17206 -8.39985
0 2.53106 -6.17206 -5.52964
0 2.53106 -3.30177 0.210769
26 1.83523 3.87624 -17.6226
0 5.4013 -11.9126 0.210769
0 3.96618 -7.6072 -1.22433
0 6.83642 -7.6072 1.64587
0 6.83642 -4.73691 1.64587
26 6.83391 3.13894 11.0888
26 8.24911 4.48978 12.4207
26 11.8723 14.7366 0.176191
26 13.3338 30.4736 30.334
26 19.3972 7.24575 4.01686
26 17.8039 7.22922 5.60954
26 20.4196 17.4589 -29.9287
