ITEM: TIME
30.0
ITEM: TIMESTEP
0
ITEM: NUMBER OF ATOMS
18
ITEM: BOX BOUNDS pp pp pp
-85.6594 85.6594
-89.9423 89.9423
-94.2253 94.2253
ITEM: ATOMS type x y z
26 -29.6095 4.64754 17.8994
26 -12.3426 4.58432 23.6663
26 -5.97502 -33.3417 6.36906
0 -4.52753 -9.69589 8.53936
0 -5.9627 6.09092 7.10421
0 -4.52753 19.0074 2.79877
26 -2.35202 -22.5942 13.5831
26 -0.877804 -15.4987 -5.04979
26 -0.226899 -19.0267 -2.28017
0 1.21315 -12.5662 8.53936
0 1.21315 7.52609 -8.68241
0 -0.222023 17.5722 4.23392
0 4.08348 7.52609 -11.5527
0 6.95382 7.52609 -14.423
0 5.51865 20.4426 7.10421
26 11.9331 7.70432 -30.9156
26 16.3537 -5.9994 -14.4593
26 19.3546 16.0952 -12.4747
