ITEM: TIME
30.0
ITEM: TIMESTEP
0
ITEM: NUMBER OF ATOMS
44
ITEM: BOX BOUNDS pp pp pp
-85.6594 85.6594
-89.9423 89.9423
-94.2253 94.2253
ITEM: ATOMS type x y z
26 -11.1289 4.96075 -8.4579
0 -9.72171 -14.4174 6.6166
0 -8.28656 -4.37129 2.31104
0 -8.28656 -1.50096 -0.559328
26 -9.68288 -0.66835 -26.9929
26 -8.3598 2.00537 -27.2562
26 -9.10105 2.03294 -23.5016
0 -5.41624 -10.1119 5.18141
26 -5.39747 -9.41379 30.31
0 -5.41624 -1.50096 -0.559328
26 -5.41491 29.3358 -22.7773
0 -2.54593 -10.1119 5.18141
0 -3.98108 -2.93613 3.74623
0 -3.98108 -2.93613 6.6166
0 -3.98108 -0.0657972 -4.86488
0 -3.98108 -0.0657972 3.74623
0 -2.54593 1.36937 5.18141
0 -3.98108 -0.0657972 6.6166
0 -3.98108 -0.0657972 9.48697
0 -2.54593 4.2397 -3.4297
26 1.04604 -10.0945 23.1512
26 0.935138 -6.47087 20.0954
26 -0.524003 -4.90952 18.6757
0 0.32439 4.2397 -12.0408
0 0.32439 7.11002 -17.7816
0 0.32439 7.11002 -12.0408
0 0.32439 9.98035 -12.0408
0 0.32439 9.98035 13.7925
26 -1.12331 23.6476 21.7066
26 2.23492 -10.1776 18.4628
26 0.830041 -8.79454 17.19
26 2.16937 -8.5377 21.592
26 2.45903 -3.60468 -23.5137
26 2.60865 19.9645 -12.6948
26 2.4747 22.1811 -19.1962
0 4.62986 8.54519 -22.0871
0 4.62986 11.4155 -10.6056
0 8.93534 -7.24162 -9.17044
26 11.2154 -16.5633 -10.6042
26 12.5513 -13.0194 -11.3114
26 11.8287 3.46435 14.582
26 13.4373 3.44182 16.1573
26 16.8558 2.06189 -9.15631
26 18.9204 -29.4405 30.2429
