ITEM: TIME
30.0
ITEM: TIMESTEP
0
ITEM: NUMBER OF ATOMS
28
ITEM: BOX BOUNDS pp pp pp
-85.6594 85.6594
-89.9423 89.9423
-94.2253 94.2253
ITEM: ATOMS type x y z
26 -18.5712 -27.572 17.6214
26 -15.6949 -6.05595 -8.17513
26 -16.3762 25.5152 -0.298472
26 -12.068 36.9539 9.77545
26 -10.5485 11.6111 -8.43654
26 -10.5036 13.2085 -6.76728
0 -8.5228 -3.93174 -6.03798
0 -7.08761 -2.4966 4.0084
26 -4.18734 -13.2621 20.5244
0 -4.21722 -8.23715 1.138
0 -4.21722 -5.36688 6.87879
0 -4.21722 -2.4966 -4.60279
0 -5.65241 -1.06146 -0.297195
0 -5.65241 1.80882 -0.297195
26 -4.92373 6.83615 -4.61452
0 -5.65241 19.0305 5.44359
0 -2.78203 -3.93174 2.5732
26 -3.60471 8.26886 -6.03783
0 2.95875 -9.67229 8.31399
0 4.39395 0.373678 9.74919
0 5.82914 -1.06146 8.31399
0 7.26433 0.373678 9.74919
0 10.1347 0.373678 18.3604
26 7.9411 9.64738 -6.03593
26 15.8803 -33.3289 -32.5944
26 28.1073 -7.50318 9.74403
26 29.4703 -32.8045 -35.3958
26 32.4995 24.781 -12.603
