ITEM: TIME
30.0
ITEM: TIMESTEP
0
ITEM: NUMBER OF ATOMS
32
ITEM: BOX BOUNDS pp pp pp
-85.6594 85.6594
-89.9423 89.9423
-94.2253 94.2253
ITEM: ATOMS type x y z
26 -16.2662 -4.65439 4.5534
26 -12.754 -4.75479 18.2509
26 -11.266 21.1711 2.44747
26 -9.19236 -31.2365 8.18805
26 -9.85481 -8.94768 -12.0307
0 -8.41752 -8.30183 1.67959
26 -8.40056 9.69094 -6.1916
0 -5.54723 -8.30183 -1.19078
0 -6.98237 -9.73703 0.244405
0 -5.54723 -8.30183 1.67959
26 -2.68444 -11.9329 -16.3248
26 -1.91627 -11.1723 9.51768
0 -2.67694 -5.43142 4.54995
26 -1.9129 0.309916 -1.96467
26 -4.86031 1.77193 15.3718
0 -2.67694 11.791 -12.6722
0 -4.11208 10.3558 -11.237
0 -2.67694 14.6615 -15.5426
0 -1.24179 10.3558 -11.237
0 1.62849 4.61502 -8.36668
26 5.27929 -18.3452 0.996992
0 5.93393 6.05023 -4.06114
0 5.93393 6.05023 -1.19078
0 5.93393 6.05023 1.67959
0 4.49878 4.61502 3.11477
0 4.49878 4.61502 5.98513
26 8.13751 -24.8548 26.0935
26 8.14297 4.60944 12.492
0 7.36907 10.3558 -2.62596
26 18.179 16.7743 1.66794
26 21.0609 11.8147 -24.9341
26 22.3903 0.314456 11.0573
