ITEM: TIME
30.0
ITEM: TIMESTEP
0
ITEM: NUMBER OF ATOMS
14
ITEM: BOX BOUNDS pp pp pp
-85.6594 85.6594
-89.9423 89.9423
-94.2253 94.2253
ITEM: ATOMS type x y z
26 -22.2107 -24.3122 13.0879
0 -7.85138 -10.7214 -0.499462
26 -7.84703 10.1278 1.60266
0 -4.98103 3.6304 2.37085
26 -6.42829 20.1997 -14.2018
26 -1.34844 -14.3654 -3.37172
0 -3.54585 2.19522 -1.93462
0 0.75968 -7.85103 -3.36977
0 -0.675497 -3.54549 -4.80492
0 3.63003 9.37111 -3.36977
26 10.0909 -10.6984 13.0559
26 8.73312 -9.32779 11.7004
0 9.37074 12.2415 10.9818
26 22.3038 23.0559 -21.2473
