ITEM: TIME
30.0
ITEM: TIMESTEP
0
ITEM: NUMBER OF ATOMS
22
ITEM: BOX BOUNDS pp pp pp
-85.6594 85.6594
-89.9423 89.9423
-94.2253 94.2253
ITEM: ATOMS type x y z
26 -22.6619 3.57839 2.99763
26 -24.0523 2.22561 4.34687
26 -13.3695 -9.31537 0.76482
0 -12.5882 4.26971 -4.99342
0 -9.71792 4.26971 -4.99342
26 -9.71031 20.7285 -22.9949
0 -6.84765 4.26971 -10.7342
26 -3.97902 -13.7211 -8.65424
0 -1.10711 -10.0821 0.74732
0 0.328027 -0.0358187 -12.1693
0 0.328027 -0.0358187 -9.29897
0 1.76316 -10.0821 0.74732
0 3.1983 -0.0358187 -9.29897
26 6.08127 -15.1543 -5.66605
0 6.06857 -0.0358187 13.664
26 4.64934 20.7247 10.1391
26 8.13015 -5.09235 13.6526
26 9.00003 -6.51253 15.7741
0 7.5037 1.39936 3.61769
0 8.93884 8.57524 5.05287
26 13.9338 0.751158 19.4349
26 34.1107 -0.689053 -2.13571
