ITEM: TIME
30.0
ITEM: TIMESTEP
0
ITEM: NUMBER OF ATOMS
44
ITEM: BOX BOUNDS pp pp pp
-85.6594 85.6594
-89.9423 89.9423
-94.2253 94.2253
ITEM: ATOMS type x y z
26 -39.9852 4.40322 -2.02662
0 -27.0727 9.46502 -2.69934
26 -18.435 -9.85398 -0.583881
26 -17.835 6.60118 -0.453105
26 -19.3611 8.47042 2.69022
0 -18.4616 20.9465 -2.69934
0 -17.0264 16.6409 -1.26418
0 -17.0264 22.3817 -4.1345
26 -12.6905 7.37868 -7.6933
0 -12.7209 12.3354 0.170973
26 -10.508 22.3809 -10.6519
26 -6.22081 -1.27491 -22.8162
0 -6.98011 0.853923 5.9116
0 -5.54492 10.9002 -1.26418
0 -1.23936 -7.75717 -5.56966
26 -2.26035 -7.13146 -4.94885
0 -1.23936 -4.88681 -2.69934
26 -0.599998 -8.78657 -4.9383
0 1.63101 -7.75717 -2.69934
26 -0.609813 -7.14291 -6.62107
0 1.63101 -4.88681 -5.56966
26 1.0537 -7.09331 -1.67733
0 0.195822 -6.32199 1.60613
26 -0.580777 -3.83473 -3.34056
0 4.50138 -10.6275 11.6522
26 2.71701 -7.07437 -3.33332
0 4.50138 -4.88681 0.170973
0 4.50138 -4.88681 3.04129
0 3.06619 -0.58126 4.47645
0 3.06619 -0.58126 7.34676
0 3.06619 -0.58126 10.2171
0 3.06619 2.28911 1.60613
0 5.93657 -9.19236 1.60613
26 10.9619 -15.5578 8.81158
26 8.07506 -15.7453 10.2035
26 13.931 10.1973 5.94157
26 11.6885 31.7631 22.4618
26 16.7398 5.83287 -2.71335
26 15.2621 8.84369 7.34221
0 21.7236 -7.75717 -5.56966
0 20.2884 -9.19236 -1.26418
26 23.9019 -14.9234 12.3113
26 26.6977 -13.5576 -4.73957
26 28.1944 -9.81103 -5.59711
