ITEM: TIME
30.0
ITEM: TIMESTEP
0
ITEM: NUMBER OF ATOMS
20
ITEM: BOX BOUNDS pp pp pp
-85.6594 85.6594
-89.9423 89.9423
-94.2253 94.2253
ITEM: ATOMS type x y z
26 -21.3892 16.6834 -13.9072
26 -12.7835 -20.6218 -12.3705
26 -11.3187 -6.33017 14.9359
0 -8.47309 -5.60257 -0.226177
26 -9.93002 -3.44018 14.7638
0 -5.60279 -5.60257 -3.09655
0 -7.03794 -7.03773 -1.66136
26 -7.80699 10.1896 -15.2551
0 0.137817 -5.60257 11.2553
0 -1.29733 -7.03773 15.5609
0 0.137817 0.138046 -0.226177
0 -1.29733 10.1841 -4.53174
0 3.00812 -19.9541 8.38495
0 1.57297 -7.03773 6.94976
26 3.00189 26.7387 -22.441
26 10.964 -1.28332 4.84856
0 11.619 11.6193 -3.09655
26 13.0632 -23.4804 16.3365
26 19.5436 18.0016 -10.2928
26 23.8885 19.4761 -5.93052
