ITEM: TIME
30.0
ITEM: TIMESTEP
0
ITEM: NUMBER OF ATOMS
32
ITEM: BOX BOUNDS pp pp pp
-85.6594 85.6594
-89.9423 89.9423
-94.2253 94.2253
ITEM: ATOMS type x y z
26 -24.5096 9.09669 -8.0828
26 -18.7647 -15.9602 4.19975
26 -16.6674 -6.02824 7.85162
26 -14.5518 -24.5579 -10.1664
26 -11.5786 -27.5286 5.61659
26 -11.5807 -5.92859 -11.6068
26 -8.79628 -13.0921 7.07481
0 -9.48866 -6.68669 -2.98539
0 -9.48866 -6.68669 -0.114984
26 -7.38405 -23.9209 9.25593
0 -6.61834 -3.81635 5.62583
0 -2.31285 -8.12185 -1.55019
0 -3.74801 -3.81635 -11.5966
0 -3.74801 -3.81635 -5.85579
0 -0.877685 -6.68669 -5.85579
0 -0.877685 -6.68669 -2.98539
0 -0.877685 -3.81635 -5.85579
26 -0.201935 6.99038 1.30893
0 3.4278 -5.25152 -7.291
0 3.4278 -5.25152 -4.42059
0 1.99264 -0.946016 -5.85579
26 2.75237 22.0155 9.25763
26 7.08093 -8.89116 -27.3938
0 9.16846 20.5815 4.19062
0 10.6036 10.5353 2.75542
26 10.6049 14.1695 24.9546
0 12.0388 17.7112 4.19062
26 11.2581 32.0415 3.42179
26 11.2632 34.9188 -3.67434
0 14.9091 11.9705 4.19062
26 21.4034 11.953 -3.65816
26 32.1414 -4.49314 25.0549
