ITEM: TIME
40.0
ITEM: TIMESTEP
0
ITEM: NUMBER OF ATOMS
586
ITEM: BOX BOUNDS pp pp pp
-300.694 300.694
-300.694 300.694
-300.694 300.694
ITEM: ATOMS type x y z
0 38.6778 71.9854 17.2371
74 41.844 59.03 13.0935
74 44.3291 60.4772 11.8749
74 42.294 56.4568 11.2093
74 41.6516 56.5298 13.7647
74 44.1717 57.9494 12.2659
74 44.7308 58.0096 9.71768
74 47.1827 59.585 8.19142
74 44.9634 60.5749 9.20369
74 44.6771 55.4593 10.2204
74 45.143 55.4838 7.61967
74 47.5609 58.082 5.89329
74 45.2555 58.034 7.16504
0 51.4834 69.2154 -7.61013
74 51.8182 76.6185 -23.2223
0 36.4373 49.2599 -5.57791
0 42.8572 45.0194 -4.61934
0 35.8983 36.3685 -6.73684
74 121.057 -47.2232 106.07
74 121.669 -47.3117 103.188
0 98.4141 -4.16363 43.3066
74 122.204 -49.7057 98.8975
0 99.21 -29.3822 72.7395
0 113.334 -36.7697 81.3459
0 46.3003 30.8506 -17.1931
0 62.5586 24.6196 -7.31325
74 61.0413 48.1199 -41.0185
0 89.1735 -11.4115 41.7722
0 101.016 -17.3959 50.9617
0 110.724 -24.5367 58.8778
0 50.4385 28.0131 -15.6514
0 45.1213 41.6177 -34.8285
74 37.0432 74.1598 -80.3194
0 106.228 -42.8611 81.085
74 121.262 -51.1853 92.1309
74 122.641 -52.2263 94.2093
0 92.0529 -22.0529 48.5759
0 102.317 -24.012 54.7893
0 104.876 -22.8242 53.3548
74 25.8866 48.1751 -54.6604
0 122.54 -23.8108 56.116
0 37.8424 44.796 -45.1842
0 25.5629 11.0476 -7.72739
0 87.8096 -31.0761 57.9804
74 116.94 -53.411 89.6861
74 119.452 -52.1264 88.3079
0 83.6459 -21.5282 44.4874
0 102.636 -35.8413 63.0275
0 104.493 -37.2757 65.1523
0 104.771 -34.6849 64.3009
0 106.627 -36.1193 66.4257
0 96.6163 -24.859 47.4097
0 30.0587 29.372 -29.9346
0 110.315 -32.2779 58.724
0 113.603 -35.1782 65.6815
0 40.7474 27.4442 -26.4292
0 106.854 -20.1078 41.6717
0 112.424 -24.4111 48.0461
0 114.281 -25.8455 50.1709
74 23.9413 47.0967 -56.2665
0 100.409 -9.15686 28.7618
74 32.5806 71.7891 -89.1164
0 -1.03875 0.666743 -0.923044
0 30.8546 4.15338 -0.501599
0 94.2294 -35.3166 58.939
74 119.449 -54.5688 86.3331
0 104.918 -37.2443 62.4444
0 106.775 -38.6788 64.5692
0 40.6422 15.5836 -15.483
0 87.0557 -20.2776 37.6371
0 88.9123 -21.712 39.7619
0 94.4819 -26.0154 46.1363
0 98.195 -28.8843 50.3859
0 100.477 -30.2873 49.8028
0 102.333 -31.7218 51.9276
0 104.19 -33.1562 54.0524
0 91.4718 -20.5242 38.3274
0 108.181 -33.4343 57.4506
0 96.5909 -18.1486 35.4584
0 115.581 -32.4617 53.9985
0 121.429 -34.1742 59.5215
0 56.4245 22.7419 -26.7979
0 45.0871 47.3287 -61.5928
0 37.9388 55.6573 -70.9434
0 38.1913 64.9586 -83.7461
0 25.605 -3.37252 1.36224
0 34.4371 -3.8658 2.74285
0 32.4079 6.83846 -9.47674
0 103.382 -47.6391 68.5578
0 89.2322 -33.5413 48.0001
0 84.3656 -26.6157 38.0664
0 95.5048 -35.2224 50.8152
0 97.6392 -34.066 52.0886
0 94.6291 -28.5748 44.2797
0 98.7673 -31.4123 45.8214
0 100.624 -32.8468 47.9462
0 104.337 -35.7157 52.1958
74 56.9648 2.73714 -1.71547
0 101.327 -30.2245 44.3869
0 100.902 -30.2559 47.0948
0 103.183 -31.6589 46.5117
0 102.758 -31.6904 49.2196
0 42.6206 18.3001 -27.1661
0 44.4771 16.8656 -25.0413
0 107.599 -31.9056 47.202
0 107.174 -31.937 49.91
0 109.456 -33.34 49.3268
74 21.2357 38.1602 -57.3655
0 111.59 -32.1836 50.6003
0 58.4537 12.0376 -14.5783
0 116.432 -32.3989 48.5826
0 46.5861 24.7324 -35.7192
0 55.8688 17.5602 -25.0951
0 117.412 -27.1858 44.172
0 119.269 -28.6202 46.2968
0 49.6759 37.8123 -50.8077
0 52.6606 39.0315 -54.9502
0 58.9332 37.3504 -52.1351
74 16.1255 15.9884 -32.7681
0 96.1026 -44.4608 58.2021
74 18.5634 19.5327 -32.2271
0 94.9491 -40.4041 52.518
0 100.519 -44.7074 58.8924
74 30.6012 11.3487 -25.0986
0 39.9559 5.25161 -14.7854
0 95.6521 -37.7818 48.9587
0 95.227 -37.8132 51.6666
0 97.5086 -39.2163 51.0835
0 100.797 -42.1166 58.041
0 108.648 -47.8229 63.8323
0 45.8033 3.53911 -9.26236
0 92.642 -32.2907 41.1498
0 97.7865 -36.6254 50.2321
74 55.9856 -0.978576 -5.94252
74 55.7646 0.423632 -1.74505
74 57.1024 -1.92337 -1.50066
0 117.055 -48.3476 67.9208
74 58.6583 0.228273 -4.89213
0 97.7611 -29.915 38.2808
0 97.3359 -29.9465 40.9887
0 101.049 -32.8153 45.2383
0 104.762 -35.6842 49.4879
0 106.619 -37.1187 51.6127
0 60.4321 14.7541 -26.2614
0 32.8364 45.572 -70.9361
0 17.3198 1.3031 -16.5341
0 59.5696 -25.0102 23.0929
0 92.1117 -44.1827 54.8039
0 101.82 -51.3236 62.72
0 106.964 -55.6583 71.8023
0 92.0863 -37.4724 42.8525
0 101.369 -44.6446 53.4766
0 103.226 -46.079 55.6014
0 113.94 -54.7171 71.0581
0 21.8156 19.6275 -38.7413
74 82.7386 -26.8721 26.1265
0 101.647 -42.0537 52.6252
0 109.073 -47.7915 61.1244
0 116.924 -53.4979 66.9157
0 116.499 -53.5293 69.6236
0 112.336 -43.9815 56.1306
0 88.9035 -22.7114 24.9489
0 103.756 -34.187 41.9473
0 38.7515 22.7291 -44.3721
0 56.8663 15.0635 -32.3675
0 54.3611 39.1571 -65.7818
74 101.931 18.5043 -28.6163
74 103.227 17.3682 -30.2418
74 108.339 -78.2081 98.9569
74 53.333 -32.5719 31.4118
0 15.1854 0.146701 -17.8076
0 62.2764 -26.3819 19.8019
0 64.133 -27.8163 21.9267
0 92.259 -46.7422 52.9473
0 94.5406 -48.1452 52.3642
0 98.5316 -48.4232 55.7624
0 108.239 -55.5641 63.6785
74 82.0031 -31.8927 27.8302
0 92.2335 -40.0318 40.996
0 101.516 -47.204 51.62
0 103.373 -48.6385 53.7448
74 64.0234 -14.0211 3.91321
74 82.7588 -29.5737 24.5179
0 94.7931 -38.844 39.5615
0 100.363 -43.1473 45.9359
0 103.651 -46.0476 52.8934
0 105.507 -47.4821 55.0182
0 107.789 -48.8851 54.4351
0 138.925 -73.3021 93.2647
0 28.6606 15.4184 -40.4907
0 102.922 -41.9595 44.5014
0 106.635 -44.8284 48.751
74 83.489 -24.5259 22.6533
0 106.913 -42.2376 47.8996
0 111.051 -45.075 49.4413
74 86.1863 -23.4029 21.3455
0 96.4769 -31.0086 31.5915
0 118.755 -48.222 57.0892
74 86.9737 -20.751 17.6989
0 27.7595 28.7763 -58.9775
0 122.27 -35.1107 39.2926
74 59.3445 18.1181 -40.7415
0 52.3994 28.7309 -56.9605
0 54.5083 36.5977 -67.6384
74 51.5602 -33.7123 27.5295
0 95.8414 -54.7613 56.1918
0 97.2729 -56.2272 61.0245
0 90.5497 -47.8672 48.966
0 92.8313 -49.2702 48.3829
0 99.8324 -55.0394 59.59
74 77.6902 -34.4058 27.8748
0 99.104 -50.9513 51.198
74 80.4553 -33.1903 23.9664
74 79.9513 -33.2015 26.6651
0 96.0939 -45.4601 43.3891
0 95.6687 -45.4915 46.097
0 97.9504 -46.8946 45.5139
0 99.807 -48.329 47.6387
0 101.663 -49.7635 49.7635
0 103.095 -51.2293 54.5962
74 84.7424 -33.6356 24.8396
0 98.2283 -44.3037 44.6625
0 100.51 -45.7068 44.0794
0 100.085 -45.7382 46.7873
0 102.366 -47.1412 46.2042
0 104.223 -48.5757 48.329
0 103.798 -48.6071 51.0369
0 111.224 -54.3449 59.5361
74 83.7691 -29.4206 19.0806
74 83.2584 -29.5301 21.7868
0 100.788 -43.1159 43.228
0 103.069 -44.519 42.6449
0 102.644 -44.5504 45.3528
0 113.784 -53.157 58.1016
74 88.0597 -29.8582 20.0667
74 87.5244 -29.7828 22.7414
0 99.6343 -39.0592 37.5439
0 103.772 -41.8967 39.0856
0 103.347 -41.9281 41.7935
0 107.06 -44.797 46.0431
0 127.908 -60.5445 66.708
74 86.6229 -25.7352 16.9036
74 88.3368 -27.3002 19.1899
0 102.194 -37.8714 36.1094
0 124.472 -55.0848 61.607
74 93.0169 -27.4421 17.0239
0 123.319 -51.0281 55.9229
0 120.309 -45.5369 48.114
0 46.7246 21.1736 -52.3887
74 59.0493 15.6275 -39.6604
74 61.4086 14.4094 -40.5092
74 61.3577 11.9099 -39.5756
74 62.1998 16.7969 -43.8861
74 62.9475 16.8672 -46.5723
74 64.5065 15.5398 -44.5355
74 63.5617 19.5139 -50.0318
74 68.8607 18.1162 -44.7063
0 59.3495 36.3825 -69.656
0 106.425 -68.5497 70.6434
0 95.9887 -57.3208 54.3352
74 7.23852 15.1681 -48.836
74 18.0988 5.43831 -34.6408
74 73.3073 -36.5791 25.4721
74 75.106 -37.9645 27.71
0 86.9839 -47.5577 42.8598
0 89.2655 -48.9607 42.2767
0 94.41 -53.2955 51.3591
74 75.9284 -35.4006 23.9165
74 77.6544 -36.9816 26.0817
74 79.3698 -38.3655 28.3393
0 91.8251 -47.7729 40.8422
0 104.396 -57.8455 58.4238
0 106.677 -59.2485 57.8407
74 80.2444 -35.7522 24.7985
0 95.816 -48.051 44.2405
74 81.3949 -33.1909 18.6556
74 80.9426 -33.1541 21.3003
0 94.6625 -43.9943 38.5564
0 103.945 -51.1665 49.1804
0 111.371 -56.9043 57.6796
74 85.7388 -33.5331 19.4707
74 85.2588 -33.5298 22.1794
0 93.934 -39.9062 30.1643
0 100.935 -45.6754 41.3715
0 113.931 -55.7165 56.2451
74 86.4045 -30.6491 15.9696
74 88.5504 -29.7851 17.2609
0 106.054 -43.2997 38.5025
0 109.317 -39.4897 33.5087
0 113.03 -42.3586 37.7583
0 41.3276 16.2071 -48.6683
74 55.0459 10.9554 -41.618
74 61.6542 11.7313 -42.3616
74 60.1075 13.0185 -44.4951
74 64.2327 13.0188 -43.7272
74 66.6314 11.7281 -44.1032
74 65.9647 11.7838 -41.4508
74 68.231 10.3933 -42.1098
74 65.0273 18.0105 -48.1378
74 66.8377 14.2903 -45.0654
74 69.1731 17.9929 -47.3957
0 92.8891 14.7133 -45.2174
74 66.0046 -89.6532 95.1998
74 75.0938 -40.5728 25.9207
0 90.8442 -52.986 45.2529
74 76.1743 -38.1515 22.2395
0 101.255 -57.5046 49.6097
0 100.83 -57.536 52.3176
74 76.4056 -35.5541 21.2554
0 88.5371 -44.8726 33.8847
0 94.5319 -49.1445 37.5512
0 95.9633 -50.6104 42.3839
0 98.2449 -52.0134 41.8008
0 101.958 -54.8823 46.0504
0 107.103 -59.2171 55.1327
0 114.529 -64.9549 63.6319
74 83.3826 -37.1419 19.0609
74 82.8936 -37.1058 21.758
0 100.804 -50.8256 40.3663
0 100.379 -50.857 43.0742
0 104.795 -51.1037 43.7645
0 107.077 -52.5067 43.1814
0 110.365 -55.407 50.1389
0 55.6531 31.5416 -76.7673
74 91.0947 18.119 -54.3355
74 95.4148 17.8865 -53.6715
0 72.5444 -75.7522 67.092
0 89.333 -70.0912 63.3177
0 97.2641 -57.2265 46.2115
0 100.977 -60.0954 50.4611
0 106.547 -64.3988 56.8355
0 108.403 -65.8332 58.9603
0 92.3975 -50.3009 36.2778
0 109.531 -63.1796 52.6931
74 81.1982 -38.084 17.7501
0 111.666 -62.0232 53.9665
0 86.911 11.2756 -51.7456
0 104.575 10.289 -48.9844
0 93.168 -68.8092 53.7594
0 88.3013 -61.8836 43.8257
0 97.1589 -69.0872 57.1577
0 97.8365 -59.7546 41.647
0 105.793 -53.6003 36.4922
0 86.6332 8.68471 -50.8942
0 105.426 10.3518 -54.4002
0 73.4876 -103.53 94.6684
0 69.8543 -82.0903 67.5213
0 67.9723 -73.9455 53.4452
0 71.9633 -74.2235 56.8434
0 104.282 -70.7055 54.5569
0 113.366 -61.8975 43.1348
0 120.793 -67.6353 51.634
0 54.2384 25.2978 -84.4617
0 84.2209 4.93747 -51.3162
0 93.4782 4.4756 -52.6436
74 88.9154 -118.04 112.471
0 83.6206 -110.64 99.8766
74 69.867 -71.6387 43.4413
74 74.1624 -71.8714 43.9949
74 78.5674 -72.0068 44.4971
74 78.9037 -69.3667 43.5929
0 94.1655 -71.3058 46.4871
74 104.374 -76.224 52.3159
74 29.8181 17.0746 -76.718
74 63.9599 -78.8199 50.3835
74 66.2039 -80.344 49.9035
74 69.0741 -76.713 47.5142
74 72.8534 -79.1869 51.7143
74 67.4363 -72.7095 44.4229
74 69.2674 -74.1688 46.688
74 73.3482 -76.8122 48.2638
74 72.1804 -72.9745 42.5118
74 73.985 -74.4439 44.7724
74 77.6117 -76.9651 48.8726
74 79.8604 -78.4809 48.4075
74 76.8392 -73.293 40.5839
74 78.8521 -74.6826 42.776
74 80.2671 -75.9553 47.3644
74 80.5904 -73.4321 46.4702
74 81.0818 -70.7956 42.9291
74 83.3488 -72.2312 42.2395
74 103.45 -81.1387 56.5085
74 102.715 -77.3802 48.5197
74 105.729 -80.1561 55.0554
74 108.031 -81.7219 54.6072
74 106.666 -77.6802 51.8398
74 108.369 -79.0846 53.6711
74 110.078 -80.3001 55.6343
74 112.408 -81.822 55.2449
74 114.187 -83.2648 57.4306
0 102.269 -67.7109 39.4756
74 31.8346 13.2742 -76.4988
0 56.3449 -91.6509 63.4401
74 62.6735 -86.4097 55.3738
74 61.1508 -82.5411 52.6357
74 63.4301 -83.9096 52.0036
74 64.603 -85.0768 56.8773
74 66.8457 -86.5306 56.212
74 62.5778 -79.997 43.8625
74 63.8879 -81.3796 51.2029
74 65.586 -82.7619 53.3557
74 67.2297 -83.9624 55.4354
74 69.5271 -85.3617 54.8654
74 68.4871 -81.8092 49.3874
74 69.9036 -82.8344 54.0244
74 72.1819 -84.2318 53.4386
74 65.0116 -76.4205 44.1189
74 66.9095 -77.9164 46.2697
74 69.1642 -79.4157 45.743
74 71.0723 -80.6238 47.8354
74 73.0119 -81.9265 49.9985
74 66.0856 -73.783 38.1493
74 68.0051 -75.3799 40.1085
74 72.1231 -78.3131 41.6132
74 77.641 -82.2652 47.9714
74 79.5041 -83.8022 50.1092
0 78.6777 -83.5829 54.0889
74 71.9577 -75.5561 43.364
74 75.9816 -78.2926 44.8749
74 77.7545 -79.7133 47.1122
74 81.4395 -82.2535 51.2355
74 76.7343 -75.8783 41.4736
74 82.4982 -79.9451 45.0612
74 84.2819 -81.2847 47.2668
74 82.4982 -77.3328 46.8249
74 84.6648 -78.8076 46.2359
74 85.0772 -76.2602 45.3772
74 87.7489 -77.5973 42.4542
0 91.1975 -80.2347 47.7678
0 96.342 -84.5695 56.8501
74 99.4297 -83.5083 51.3544
74 101.403 -84.9034 53.5127
74 102.636 -86.1148 58.1872
74 104.852 -87.6873 57.7171
74 106.443 -88.7628 62.475
74 101.787 -82.5138 50.0637
74 103.515 -83.8204 54.7459
74 105.489 -85.1987 56.9087
74 106.988 -86.5347 58.9689
74 109.184 -88.0826 58.43
74 105.887 -82.8474 53.3763
74 107.572 -84.0026 58.0955
74 109.11 -85.3028 60.1291
74 113.595 -88.378 59.1296
74 114.886 -89.4939 63.7591
74 104.523 -78.7669 50.3179
74 109.784 -82.9354 56.6178
74 112.031 -84.3786 56.1442
74 113.99 -85.8637 58.2224
74 115.628 -87.0409 60.348
74 116.459 -84.6434 56.6896
74 69.3564 -119.268 96.1653
74 72.4963 -119.074 95.5609
0 60.2052 -97.0793 65.8331
74 69.1781 -87.9072 55.6527
74 72.0633 -89.5137 52.6714
74 72.3541 -86.9613 51.72
74 74.6779 -88.2908 51.1522
74 75.2313 -86.0426 47.5693
74 77.0239 -87.4434 49.7554
74 75.8861 -83.6412 44.0545
74 77.353 -84.896 48.8411
74 78.8899 -85.6802 53.4338
74 83.4296 -88.9367 52.4801
74 75.7584 -80.8537 45.7288
74 81.8151 -85.2039 49.5274
74 83.5044 -86.2797 51.5155
74 84.3237 -83.8133 48.0971
74 86.468 -85.3349 47.4599
0 95.5084 -92.342 59.4043
74 88.4628 -83.9643 48.6684
74 90.5893 -85.3539 50.744
74 92.4023 -86.6319 52.9534
74 89.2382 -81.5652 45.2425
74 90.9653 -82.7916 47.1861
74 93.1769 -84.4578 46.7877
74 94.9688 -85.6247 51.4783
74 96.947 -86.9943 53.6001
74 98.4913 -88.3829 55.6316
74 100.606 -89.9533 55.1935
74 102.599 -91.3886 57.3278
74 104.592 -92.7475 59.4795
74 108.107 -95.4472 63.731
74 97.137 -84.4616 52.7565
74 99.2735 -86.0369 52.2518
74 101.258 -87.4332 54.3835
74 102.726 -88.8289 56.4404
74 104.716 -90.2106 58.6029
74 108.375 -92.9269 62.8074
74 109.966 -94.1841 67.5936
74 112.56 -95.7068 64.4454
74 108.503 -90.3963 61.8457
74 110.699 -91.9818 61.36
74 113.046 -93.5164 60.9038
74 114.295 -94.484 68.3108
74 117.035 -95.9229 65.2038
74 111.476 -89.5748 57.8593
74 113.439 -90.9505 60.0323
74 114.785 -92.0534 64.7328
74 117.091 -93.3848 64.2496
74 118.684 -94.735 68.9149
74 117.285 -90.8308 63.2012
74 120.22 -92.5252 60.2094
74 120.375 -89.9047 59.4286
74 122.297 -91.3065 61.5411
74 60.4228 23.5731 -104.219
74 71.1288 -120.136 89.44
0 88.1752 -114.445 83.8973
74 74.3566 -90.8047 52.0546
0 96.5568 -108.259 76.0345
74 78.1484 -90.8516 55.1915
74 81.065 -92.2972 52.2245
74 85.2916 -92.5347 52.7782
74 87.2041 -94.0228 54.89
74 85.9901 -90.3155 49.2436
74 87.9877 -91.6894 51.3455
74 89.6583 -93.3075 53.5839
74 86.4586 -87.8161 48.3743
74 88.1222 -89.118 50.4464
74 90.1225 -90.6524 52.6327
74 92.2379 -92.237 52.0726
74 94.0845 -93.3091 54.1542
74 95.9106 -94.6935 56.2854
74 88.4903 -86.5202 49.556
74 95.9351 -91.8115 58.0511
74 98.4303 -93.5979 54.8273
74 100.292 -95.0292 56.9041
74 101.846 -96.4245 59.0726
74 98.4776 -91.0541 53.9918
74 100.491 -92.4795 56.0841
74 101.773 -93.7291 60.7333
74 105.76 -96.4968 64.8629
74 106.504 -94.5676 58.9268
0 98.0425 -84.4438 46.0184
74 26.5687 2.92228 -83.9038
74 83.2086 -93.9824 51.7359
74 84.4949 -95.1352 56.2209
74 90.9126 -99.0583 57.2382
74 94.8912 -99.6004 60.6926
74 99.0259 -102.38 62.2033
0 74.9558 -81.7134 35.0263
74 93.2012 -95.9722 57.5287
74 95.0817 -97.0581 59.7308
74 97.359 -98.4573 59.0737
74 99.5467 -100.023 58.7009
74 98.0967 -96.1326 55.5935
74 99.4288 -97.3573 60.3512
74 101.349 -98.8365 62.5492
0 89.1727 -116.942 76.6249
74 90.2355 -102.225 60.5212
74 97.5954 -101.294 57.5075
0 53.5951 -85.5676 25.1538
74 82.8094 -108.284 62.8073
0 50.1599 -80.1079 20.0528
0 82.8492 -101.84 49.9072
74 56.9903 -75.7018 13.2772
0 71.3778 -121.105 72.8586
0 72.5059 -118.452 66.5914
74 84.4788 -67.6802 -0.81584
0 67.2817 -132.688 80.4065
0 67.9847 -130.066 76.8472
0 75.9411 -123.911 71.6923
0 73.634 -115.798 60.3241
0 87.3074 -116.507 59.6871
0 90.4515 -78.1453 9.74972
0 61.4088 -124.265 62.9322
0 66.8057 -119.299 59.2118
0 76.0884 -126.471 69.8358
0 84.9205 -126.964 71.2164
74 101.43 -107.765 45.0889
0 55.5613 -122.553 57.4091
0 62.5369 -121.611 56.6649
0 66.25 -124.48 60.9146
0 62.4063 -126.762 55.6598
0 79.3676 -130.371 61.9803
0 75.9324 -124.911 56.8793
0 72.1141 -133.903 63.5759
0 74.2231 -126.036 52.898
74 32.0287 -132.212 51.2274
74 85.6259 -161.961 83.3471
74 42.8433 -144.219 52.9553
0 63.0374 -151.42 57.3233
74 74.0493 -158.005 63.0736
74 82.5012 -151.795 55.1818
74 64.5407 -157.943 59.4194
74 58.9024 -154.673 38.8562
