ITEM: TIME
40.0
ITEM: TIMESTEP
0
ITEM: NUMBER OF ATOMS
498
ITEM: BOX BOUNDS pp pp pp
-300.694 300.694
-300.694 300.694
-300.694 300.694
ITEM: ATOMS type x y z
0 81.2514 6.32663 47.0755
74 81.9262 15.6062 40.4673
74 80.3954 19.1912 38.7256
0 76.7838 28.0512 35.3795
74 84.3308 17.5785 34.5058
74 33.1886 1.86335 32.835
0 74.5791 17.5524 26.1439
74 15.9435 37.1711 7.34542
0 53.4914 0.967744 20.7403
74 68.4846 65.5371 -7.20573
0 38.9927 -6.22397 18.2739
0 28.7592 1.0206 14.651
0 41.0355 -4.82474 19.4501
0 43.1778 -4.72695 17.7427
0 29.2197 6.21586 14.0594
74 67.4057 61.6984 -8.84818
74 15.5642 -25.7408 23.4427
0 39.0922 -7.52539 15.3902
0 33.7853 -0.0311129 13.562
0 38.8114 -1.08282 12.4729
0 31.4616 5.01223 9.4684
0 43.7379 -0.83311 14.2675
0 -1.10023 20.2056 3.22461
0 36.3882 5.26195 11.263
0 39.2719 4.11244 11.8813
0 0.761276 26.7459 -1.4001
0 37.4087 14.351 7.19618
0 34.1657 -7.77511 13.5956
0 29.6997 -2.82956 11.2095
0 35.7463 5.20783 6.05361
0 41.5138 2.90881 7.29028
0 37.9899 -12.7748 10.7724
0 54.1704 -10.6805 12.123
0 52.5881 -6.88449 10.3552
74 73.1029 -9.71716 11.3568
74 71.3989 -6.12201 9.43729
0 68.5874 0.3509 5.90486
0 90.8915 56.9797 -17.1453
74 99.4317 79.364 -27.7599
0 0.601022 0.867417 -0.149611
0 28.5973 -8.07894 6.59166
0 33.6234 -9.13065 5.5026
0 51.6671 -17.275 11.5384
0 38.5499 -8.88094 7.29719
74 -3.6875 11.1238 -5.75278
0 11.2934 15.5971 -6.4282
74 74.5449 -8.3992 7.46278
74 70.7785 -5.9538 4.34394
74 78.4242 -7.00399 6.66
74 81.3162 -8.27139 7.31614
0 74.1735 3.19302 1.34058
0 107.374 21.6118 -5.82593
0 97.8802 44.388 -16.4329
0 73.9696 56.1328 -20.8217
0 83.1808 56.5781 -22.4419
0 89.4071 76.2533 -31.1066
74 -0.76455 8.84849 -7.96853
0 38.3686 -3.7398 1.49623
74 68.7463 -7.42287 3.19984
74 77.1099 -10.9567 5.04411
74 73.3626 -8.55522 2.24681
74 74.1669 -9.68332 4.60874
74 75.5285 -7.17976 3.30335
74 78.4508 -8.31649 3.78629
74 81.3031 -9.44664 4.4399
0 81.8025 7.43437 -2.04745
0 82.3626 11.3282 -5.52267
0 97.8018 14.6698 -6.49779
0 101.425 29.0519 -12.8636
0 62.0737 54.2342 -25.5871
0 74.35 48.3888 -20.788
0 92.392 57.0234 -24.0621
0 23.8699 -10.9315 -0.970206
74 63.3061 -12.5629 2.03924
74 67.2417 -11.3492 1.47097
74 69.392 -11.3016 -0.137743
74 71.3674 -9.91534 1.07123
74 76.5574 -10.9215 0.0333405
74 77.5982 -7.03976 1.61822
0 103.287 35.5923 -17.4883
0 85.7035 48.9319 -24.1156
0 110.916 39.8336 -20.8763
0 94.0739 51.926 -25.1779
0 111.936 48.9227 -24.9431
0 33.362 -16.9288 0.326893
74 59.9934 -11.577 -3.80712
74 62.1577 -10.3339 -2.61813
74 64.682 -11.4669 -2.17459
74 65.3573 -12.8213 0.19605
74 67.4567 -12.6785 -1.3896
74 71.5208 -11.315 -1.80114
74 73.5151 -9.95837 -0.615891
74 78.6713 -10.9091 -1.71353
74 80.6418 -9.49633 -0.533841
74 82.7678 -9.53114 -2.19251
74 83.4856 -10.8043 0.160246
74 85.6621 -10.8132 -1.6584
0 78.0973 -3.10807 -4.36628
0 89.6305 9.07287 -11.2028
0 93.5348 17.0125 -14.6512
0 101.064 22.5552 -15.1556
0 83.2002 42.3374 -24.7003
0 108.873 38.4344 -22.0526
0 32.1601 -20.8767 -1.40726
0 26.9527 -14.6839 -6.11916
74 54.4534 -9.51464 -4.8564
74 57.1703 -11.7177 -7.19097
74 57.3828 -10.6642 -4.21861
74 67.5486 -14.0344 -4.24007
74 58.6239 -7.94699 -5.30075
74 61.4587 -10.1932 -7.89831
74 61.9462 -11.4855 -5.65819
74 64.7569 -12.7561 -4.73604
74 66.2846 -10.1959 -5.96502
74 70.5052 -15.0577 -3.55559
74 74.6546 -13.6947 -3.95892
0 54.1065 -4.30252 -8.12981
74 77.2153 -14.873 -3.26973
74 81.3402 -13.3914 -3.88779
74 83.5287 -13.1466 -5.63802
74 84.1041 -8.2486 -6.18211
74 84.8668 -9.37076 -3.84199
74 87.0357 -9.41523 -5.59323
74 45.883 12.1877 -16.5009
0 92.0537 2.7281 -9.99286
74 109.801 -1.53 -8.16036
0 93.0743 11.8172 -14.0597
0 89.1684 20.6566 -19.921
0 95.9564 27.4467 -22.7512
0 97.2578 30.0932 -23.9007
0 84.882 37.24 -25.8161
0 98.5593 32.7397 -25.0501
0 71.0235 46.8813 -32.383
74 73.2558 52.7127 -35.8439
74 71.6214 56.435 -37.5161
0 105.808 44.7251 -28.4718
0 93.2507 57.013 -36.1882
74 70.4932 -16.4735 -6.40654
74 64.2851 -11.557 -7.08044
74 73.0847 -17.4724 -5.78161
74 78.3892 -18.542 -6.74303
74 68.3365 -10.1466 -7.64166
74 80.3644 -17.297 -5.47781
74 82.6419 -17.0797 -7.16913
74 82.9818 -12.0245 -8.03986
74 45.6184 7.05554 -16.1663
74 48.7271 9.56148 -18.8386
74 47.258 13.3878 -20.582
0 92.4341 -5.0159 -9.95919
0 95.7767 15.8088 -19.2423
0 102.104 17.4036 -21.4808
0 92.6122 23.4009 -22.7779
0 101.263 19.9524 -20.9229
0 97.3574 28.7918 -26.7843
0 96.5165 31.3405 -26.2264
0 98.6588 31.4383 -27.9338
0 99.4002 30.191 -25.608
0 99.9603 34.0848 -29.0833
0 100.702 32.8375 -26.7575
0 98.378 37.8809 -30.8511
74 70.4905 52.6922 -39.1997
74 73.3717 51.3966 -38.7804
0 86.0022 45.0276 -32.7665
0 88.1445 45.1254 -34.4739
74 74.6613 54.1587 -39.752
74 78.1613 51.6212 -36.9574
0 89.446 47.772 -35.6234
74 77.4507 54.2606 -36.5561
0 30.496 -13.241 -11.8597
0 94.498 -34.6363 -1.7315
74 64.3009 -12.8859 -9.98554
74 67.6081 -16.2686 -9.82192
74 80.6353 -18.6259 -8.40734
74 79.8275 -17.126 -10.6248
74 81.9938 -16.0383 -9.5615
74 80.4763 -12.3751 -11.5091
0 90.7717 -14.1591 -11.1018
74 48.7766 8.38111 -21.4494
0 107.971 13.8032 -23.1278
0 104.807 21.3953 -26.6634
0 112.617 20.4955 -24.2505
0 95.8746 31.2864 -31.4358
0 96.616 30.0391 -29.11
0 99.4997 28.8896 -28.4917
0 91.4086 36.2319 -33.8219
0 100.801 31.5361 -29.6412
74 76.3354 49.0334 -40.7469
0 86.1017 43.7262 -35.6502
0 88.9854 42.5767 -35.0318
0 102.663 38.0765 -34.2659
74 75.3657 51.6936 -40.5589
0 100.8 48.3151 -38.951
0 88.9838 59.3557 -44.3417
74 120.462 90.6166 -56.4402
0 89.5714 -34.886 -3.52609
0 111.799 -24.7544 -7.33133
0 93.1933 -3.72491 -19.2017
0 111.696 10.105 -23.0674
0 87.0438 23.0971 -29.7819
0 89.9275 21.9476 -29.1635
0 93.0905 31.1345 -34.9377
0 86.4821 35.9822 -35.6165
0 100.159 31.482 -34.8506
0 103.043 30.3325 -34.2322
0 96.4347 35.1802 -34.911
0 99.3184 34.0307 -34.2926
0 97.7361 37.8267 -36.0605
0 99.0376 40.4733 -37.21
0 91.6879 46.5683 -40.2145
0 97.4553 44.2693 -38.9778
0 75.2524 -30.4399 -9.50141
0 95.4368 -21.7075 -14.4829
0 81.4787 -10.7647 -18.1662
0 113.939 -7.87764 -18.3486
0 99.9797 19.8441 -31.3417
0 102.122 19.9419 -33.0491
0 105.006 18.7924 -32.4307
0 101.281 22.4907 -32.4912
0 94.4915 32.4796 -38.9709
0 98.1165 30.0828 -36.0268
0 93.6505 35.0283 -38.413
0 61.6471 70.8944 -57.4418
0 96.7123 62.2956 -50.6134
0 74.8914 -36.9366 -11.7935
0 92.0926 -25.7533 -14.5097
0 104.929 -27.7048 -13.1858
74 104.539 -4.10058 -26.7276
74 115.212 4.25176 -30.0109
0 94.5926 14.3992 -32.5447
74 114.265 6.82399 -29.6438
0 114.496 29.5741 -40.4435
0 85.0973 53.9544 -52.4615
0 62.488 68.3457 -57.9997
0 80.9381 -28.8992 -16.9493
0 64.9372 -19.3556 -21.8088
0 128.939 -40.751 -11.6807
0 99.261 -26.7072 -17.3061
0 82.5187 -15.9163 -24.4914
74 103.289 -7.74181 -28.2915
74 107.502 -6.43537 -28.8095
74 106.773 -3.82358 -28.4757
74 113.166 2.95171 -31.2876
74 116.427 5.51702 -34.0095
74 115.807 8.03724 -33.4067
74 119.975 9.66039 -34.4205
0 106.965 40.8103 -49.2489
0 107.426 46.0056 -49.8405
0 61.8462 68.2916 -63.2091
74 241.076 22.0512 -33.7132
74 107.897 -14.0467 -28.7778
74 104.079 -10.4238 -28.7886
74 107.042 -11.5831 -28.351
74 105.449 -7.78374 -29.9775
74 107.553 -7.60226 -31.7194
74 112.157 -0.967675 -32.8634
74 115.589 1.62892 -35.8089
74 114.419 4.05855 -35.1495
74 118.28 1.94705 -32.3448
74 117.91 6.84587 -37.969
74 117.088 9.40163 -37.4547
74 120.012 8.24786 -36.8392
74 136.128 15.6017 -41.0064
74 51.9072 62.2704 -63.736
0 73.3269 -30.6023 -25.1295
0 105.048 -43.2469 -18.3278
0 80.3958 -30.2548 -25.0424
0 126.715 -37.0091 -18.6579
74 105.189 -19.1279 -26.7462
74 103.678 -15.3946 -28.457
74 105.86 -15.281 -29.9707
74 109.941 -13.9318 -30.5637
74 110.446 -9.98716 -33.9626
74 110.451 -8.60961 -31.2041
74 112.552 -8.58525 -32.9411
74 107.817 -3.61389 -35.0691
74 110.901 -4.69053 -34.5258
74 113.898 -5.88096 -34.0011
0 150.804 -20.3371 -27.0878
74 109.967 -2.21114 -33.9793
74 113.112 -3.37126 -33.5692
74 113.358 0.349795 -36.7712
74 116.323 -0.939347 -36.3925
74 118.351 0.486749 -35.248
74 118.731 4.35194 -38.5932
74 121.198 9.8173 -40.9404
74 50.6608 58.9628 -65.3997
74 51.9383 61.0663 -66.5573
0 130.539 -42.0088 -21.4811
74 105.749 -16.6334 -32.8669
74 108.676 -17.82 -32.3554
74 107.032 -13.9771 -33.8496
74 111.278 -12.5011 -34.5893
74 113.364 -11.1519 -33.5099
74 115.505 -10.9884 -35.0665
74 113.785 -7.38368 -36.7933
74 115.908 -7.15766 -38.486
74 115.983 -5.95635 -35.8317
74 113.423 -0.930304 -39.7338
74 117.514 0.450817 -40.2566
74 118.547 3.19527 -41.2135
74 120.582 3.25548 -42.9366
74 119.853 5.83862 -42.3561
74 122.828 4.68795 -42.2161
74 121.257 8.52205 -43.4258
74 -11.4524 68.0715 -75.3845
0 66.4571 -33.5527 -30.984
0 89.7066 -31.1109 -29.5462
0 79.4731 -23.8663 -33.169
0 133.242 -38.0171 -26.6637
74 105.914 -17.9745 -35.4065
74 108.432 -12.5458 -37.8468
74 111.302 -13.628 -37.2384
74 113.383 -12.223 -36.1978
74 114.751 -11.0363 -40.1858
74 116.708 -9.69306 -39.0031
0 148.119 -21.7904 -33.4734
74 117.077 -5.90493 -42.5094
74 116.288 -3.33776 -41.8406
74 114.714 0.412574 -43.6485
74 122.74 3.4242 -44.7962
0 137.221 33.1987 -58.6669
74 97.6917 -70.8428 -14.017
0 70.1818 -37.2509 -30.9236
0 143.294 -40.1205 -28.8418
74 110.071 -17.4706 -39.3363
74 109.284 -14.9877 -38.5372
74 112.126 -16.2263 -37.872
74 113.274 -13.5802 -39.0572
74 115.284 -13.5763 -40.8538
74 115.889 -9.71831 -44.1543
0 130.916 -16.1948 -40.0671
74 118.81 -9.67638 -40.796
74 119.993 -8.45936 -44.6032
74 120.065 -7.07813 -42.1096
74 118.333 -3.20279 -43.639
0 101.16 -31.8692 -35.7575
0 131.298 -40.7178 -30.7236
74 112.707 -13.6834 -44.2679
74 117.981 -9.72307 -45.9021
74 120.964 -10.8672 -45.5075
74 122.246 -8.47327 -46.2648
0 137.244 -14.6 -42.3056
74 67.2211 -38.1668 -38.5375
74 69.8416 -39.1956 -38.1492
0 105.725 -38.1162 -36.2549
0 130.836 -29.1341 -39.4419
74 119.057 -13.5021 -49.1398
74 115.384 -9.87124 -49.2294
74 118.068 -10.8287 -48.9424
74 64.5558 -38.1208 -42.1161
74 67.4021 -39.5404 -41.4913
74 69.9211 -40.7336 -40.8976
74 72.8698 -41.7309 -40.2967
74 74.8058 -40.272 -39.1685
74 77.0153 -40.3179 -40.7661
74 79.2787 -40.29 -42.3983
74 50.0556 -18.9683 -52.7435
0 123.968 -48.8634 -35.9865
74 68.4165 -43.245 -44.8616
74 61.9892 -38.4344 -45.5259
74 64.9356 -39.5867 -44.9113
74 67.548 -40.6434 -44.3944
74 70.4413 -41.8949 -43.7121
74 72.9717 -43.0293 -43.1188
74 75.7771 -44.2978 -42.4659
74 75.1202 -41.7861 -41.9823
74 77.6787 -42.8698 -41.3024
74 79.8748 -42.8373 -42.9777
74 82.899 -43.7803 -42.3915
74 88.5278 -45.9905 -41.2781
74 81.5455 -40.227 -44.018
74 84.7765 -42.1892 -41.1729
74 86.5257 -41.2804 -44.8915
74 89.78 -43.2974 -42.3426
74 45.7585 -21.7264 -54.9895
74 85.6038 -38.8122 -44.2811
74 47.9595 -20.3143 -53.7954
0 121.644 -43.8201 -40.08
0 130.856 -43.3747 -41.7003
74 71.2202 -45.6471 -46.9595
74 74.0099 -46.9737 -46.503
0 46.8683 -33.3146 -52.6142
74 73.3395 -44.3622 -45.8969
74 75.8976 -45.4916 -45.3047
74 87.3226 -49.9901 -42.9733
0 33.7512 -24.9206 -56.8554
74 77.9816 -44.2605 -44.1928
74 80.924 -45.2173 -43.5705
74 82.4745 -43.9868 -47.496
0 122.304 -41.2276 -46.4389
0 126.208 -33.2881 -49.8874
0 118.578 -20.7504 -55.8092
74 76.9621 -49.3498 -48.5377
74 76.0781 -46.7194 -48.3141
74 78.9199 -47.7917 -47.4511
74 81.7066 -49.1113 -47.0314
74 78.0249 -45.3092 -46.9059
74 81.0751 -46.5702 -46.4281
74 83.6692 -47.7057 -45.793
74 85.1668 -45.1403 -47.0205
0 66.0322 -33.6713 -53.5289
0 114.211 -17.1063 -61.079
0 120.72 -20.6526 -57.5166
0 48.3705 -50.0499 -50.2212
0 43.1631 -43.8571 -54.9331
0 48.0896 -43.6074 -53.1385
0 58.6023 -40.5155 -55.9082
74 79.0866 -49.179 -50.3603
74 85.0341 -51.5814 -48.9082
74 83.8982 -49.0381 -48.6463
0 52.4755 -61.4922 -50.1271
0 50.0523 -55.1474 -51.337
0 39.538 -41.4603 -57.8771
0 41.6804 -41.3625 -59.5845
0 60.2841 -45.613 -57.024
74 82.2049 -51.5554 -52.347
0 129.213 -66.7586 -45.1012
0 59.1624 -36.6217 -59.3834
0 85.6759 -43.0734 -57.2936
0 86.9774 -40.4269 -58.4431
0 185.38 -22.6766 -63.0571
0 170.12 -14.3803 -65.5909
74 133.546 18.0053 -82.442
0 49.4105 -55.2015 -56.5464
0 45.405 -45.0607 -59.5241
0 47.2665 -38.5203 -64.1488
0 50.8916 -40.9172 -61.2047
74 31.4121 -23.7427 -72.2092
0 76.2834 -38.3776 -61.4743
0 77.5848 -35.7311 -62.6238
0 78.8863 -33.0845 -63.7733
0 118.976 -25.9561 -67.3437
0 172.362 -15.584 -70.1819
0 40.8589 -53.0544 -61.285
0 43.7426 -54.2039 -60.6667
0 38.4357 -46.7097 -62.4949
0 45.5046 -46.3621 -62.4077
0 48.3883 -47.5116 -61.7894
0 48.9484 -43.6178 -65.2646
0 61.2246 -49.4632 -60.4655
0 62.526 -46.8166 -61.615
0 117.495 -40.2405 -62.6854
0 136.939 -47.0398 -60.6828
0 172.462 -16.8854 -73.0656
0 177.108 -10.1931 -74.1883
0 175.244 0.0455071 -78.8734
0 61.0433 -44.322 -66.2665
0 130.251 -55.1313 -60.7363
74 133.519 -36.0235 -68.232
74 132 -32.3763 -69.9434
0 157.122 -21.5284 -74.9741
0 167.075 -22.3304 -74.2686
0 124.126 -92.8869 -45.6453
0 35.7511 -48.163 -68.8806
0 50.1697 -53.9105 -65.7889
0 41.2376 -44.0194 -70.5612
0 44.1214 -45.169 -69.9429
0 162.148 -22.5801 -76.0631
0 169.777 -18.3387 -79.4512
0 170.519 -19.586 -77.1254
74 137.098 4.61649 -91.6654
0 130.45 -57.7341 -66.5036
0 161.507 -22.6342 -81.2725
0 175.925 -28.3817 -78.1808
0 168.575 -22.2867 -81.1853
0 166.993 -18.4906 -82.9532
0 169.877 -19.6402 -82.3348
0 181.872 -19.0429 -80.4531
0 182.893 -9.95383 -84.5199
0 32.3251 -48.369 -77.5919
0 49.6274 -55.2661 -73.8819
0 60.0405 -50.8728 -73.7679
0 128.126 -52.6908 -70.5971
0 165.971 -10.8008 -88.1962
74 12.3162 -1.02862 -102.117
0 165.331 -27.6339 -84.0957
0 148.588 -16.843 -91.281
0 186.818 -33.0339 -80.9169
74 131.786 -3.41646 -98.7958
74 135.941 -1.4525 -97.9664
0 166.271 -31.484 -87.5373
0 142.08 -13.2966 -94.8434
74 138.054 -44.6071 -88.8063
0 166.189 -27.6443 -96.2219
0 197.809 -22.2085 -95.8464
74 123.683 -102.77 -66.4997
74 182.864 -36.4229 -95.8501
74 188.014 -37.4868 -91.9397
74 186.838 -41.3924 -93.7485
74 187.303 -42.7111 -96.6563
74 189.649 -42.7358 -93.2072
74 190.268 -43.8337 -95.7656
74 185.126 -37.8133 -95.3998
74 209.639 -42.0286 -95.8415
74 216.822 -41.3701 -94.1595
74 215.91 -38.6966 -94.0044
74 191.056 -41.5435 -97.134
74 167.441 -46.2222 -100.95
