ITEM: TIME
40.0
ITEM: TIMESTEP
0
ITEM: NUMBER OF ATOMS
400
ITEM: BOX BOUNDS pp pp pp
-300.694 300.694
-300.694 300.694
-300.694 300.694
ITEM: ATOMS type x y z
74 107.326 0.334016 51.5527
74 333.423 11.6197 136.159
74 380.971 1.66222 156.195
0 24.6609 -6.42511 10.6702
0 -1.0562 -0.439519 -0.481526
0 24.8658 -13.1253 8.3984
0 18.4032 -11.0075 3.77475
0 21.3133 -11.3266 4.97837
0 19.8593 -3.77462 -1.99001
74 397.643 1.54635 149.079
0 15.3599 -8.20268 -4.77177
0 39.0444 11.3569 1.41962
74 36.6557 23.2476 -3.9843
74 32.01 31.7549 -7.20094
0 14.4489 -16.5367 -8.94085
74 36.902 -16.6328 0.948339
74 61.3214 -3.36216 8.40551
74 146.03 -8.72211 42.903
74 97.7321 8.57498 19.1935
74 99.445 8.38299 23.2324
74 201.749 0.293383 64.9892
0 370.454 -15.8388 133.561
74 38.333 25.6949 -7.07252
74 385.449 12.8856 132.452
0 381.008 14.6566 132.777
74 73.528 -11.4351 9.45852
0 93.1559 -12.8542 18.1667
0 80.6684 -3.39793 13.4076
74 97.0709 9.98408 16.9901
74 378.414 8.87657 126.695
0 48.624 17.0046 -7.75803
74 327.886 -12.0842 107.184
74 320.183 -10.5147 105.286
74 322.689 -9.1532 104.123
74 327.544 -9.99578 108.701
74 41.6349 24.572 -12.3968
74 201.162 10.2961 52.984
74 335.568 -2.53903 111.452
74 338.513 -2.70819 112.612
74 336.076 0.582109 111.049
74 379.071 5.36216 124.151
74 382.365 8.21551 125.003
0 362.941 15.9437 118.532
0 155.081 -10.8436 35.4616
0 162.49 -6.73473 39.4469
0 205.125 1.25084 55.0211
0 80.4657 18.087 2.94625
0 114.744 15.737 15.1733
0 117.654 15.4178 16.3769
74 325.065 -8.06026 103.161
74 328.172 -8.2817 104.253
0 347.175 1.49914 111.199
74 375.826 6.95346 120.679
0 310.765 14.988 94.5947
74 378.257 6.89194 121.987
74 381.212 6.56363 123.139
0 393.024 16.8718 125.122
0 399.318 19.3469 127.21
74 311.005 30.0155 91.4624
0 386.188 30.2827 120.235
74 14.156 -15.5098 -21.8729
74 17.1955 -15.6745 -21.0904
0 153.965 -12.4775 33.5643
0 160.563 -2.29612 32.7977
0 83.5806 11.0678 1.87807
0 205.634 2.25694 49.8946
0 120.226 24.2845 12.5094
74 210.938 13.4443 51.1116
74 214.247 16.1863 51.9903
74 362.837 7.84037 110.415
0 370.591 11.2452 115.438
0 373.332 15.519 114.106
74 156.812 42.2745 24.241
74 152.172 45.713 22.1856
74 156.561 46.3963 22.28
0 372.011 20.5853 114.481
0 372.485 23.6987 114.161
0 374.752 24.8591 113.149
0 389.303 23.2634 119.167
74 16.3576 -15.7334 -23.5216
74 383.118 -42.2878 123.163
0 159.821 -15.223 31.1642
0 409.17 -15.4897 131.613
0 284.341 5.93945 77.0021
74 212.474 16.0906 47.9001
74 366.468 3.82235 109.265
74 407.4 -1.93661 129.303
74 364.631 5.87382 109.855
74 404.958 1.48354 127.849
0 123.271 36.2645 8.32281
74 156.166 31.8001 24.8153
74 159.053 32.0732 23.4706
0 356.719 9.25411 106.829
74 155.182 34.2075 23.2054
74 157.171 35.3923 21.9251
0 313.541 17.1545 88.4555
74 157.607 38.532 21.5884
74 157.988 37.1343 23.7833
74 158.007 41.6509 21.2513
74 158.45 40.2568 23.4373
0 398.238 15.6058 120.506
74 158.389 44.8151 20.8869
74 158.861 43.393 23.0613
74 155.53 49.282 17.8085
74 158.051 49.1163 18.7806
0 160.49 67.0011 18.0521
74 46.8334 8.66052 -19.8266
0 205.028 1.62922 42.8708
74 249.084 0.98178 61.0657
0 119.315 15.9505 8.34035
0 241.538 2.54679 58.8924
0 114.915 25.9289 4.9757
0 313.273 7.34099 86.5028
0 338.821 5.9483 95.119
74 151.744 29.0581 18.0799
74 322.009 8.85829 88.9553
74 410.554 -1.00971 125.671
0 118.603 36.4294 3.0055
74 158.145 30.2022 21.6694
74 157.756 31.5785 19.4399
74 158.2 34.8312 19.054
74 156.134 33.6125 20.1877
74 155.956 38.2177 17.699
74 156.573 36.7942 19.819
0 114.846 44.9282 1.85727
74 159.07 41.1306 18.3171
74 159.69 39.7212 20.4962
74 157.404 43.0734 19.0999
74 159.494 44.2801 17.9685
74 153.653 49.3193 13.5416
74 154.259 47.9421 15.7534
0 155.891 48.1666 15.8533
74 157.8 46.2559 18.7485
74 157.258 47.6598 16.5948
0 377.698 22.4327 109.545
0 395.159 20.5179 116.767
0 363.621 27.1417 103.208
74 161.067 51.8882 19.5469
74 183.527 -28.7477 35.1903
74 399.734 -30.3662 120.881
74 186.334 -3.95466 34.0344
74 401.832 -27.1879 122.904
0 328.875 -9.13455 90.1937
0 224.586 5.46771 46.5442
0 230.407 4.82944 48.9515
0 318.351 -6.22418 87.2765
0 329.349 -6.02118 89.8746
0 332.901 -7.81986 93.2946
0 129.028 19.1126 6.5056
0 130.617 23.8598 8.08374
0 132.885 25.0202 7.07094
0 130.448 28.4527 5.54819
74 320.302 8.67265 84.8332
74 150.606 32.0071 13.5751
74 151.17 30.5248 15.807
74 161.295 30.7371 17.8898
0 335.099 12.3399 89.1634
74 379.785 6.6659 110.083
74 159.226 34.2974 16.1011
74 159.804 32.8772 18.2764
74 143.336 39.1333 9.66089
74 154.93 36.4411 15.9257
74 159.672 37.4551 15.7002
74 157.412 40.8202 14.367
74 158.036 39.4049 16.5074
0 401.184 13.1794 116.902
74 146.791 44.6732 9.98557
74 155.076 44.2008 13.0255
74 158.452 42.5622 16.1578
74 144.133 48.3485 8.77629
74 147.143 47.8137 9.56277
74 152.738 47.5549 11.6615
74 155.386 47.3976 12.7088
74 156.041 45.9852 14.8439
74 147.594 51.0331 9.2698
74 150.273 50.8966 10.2714
74 150.973 49.5251 12.4846
74 155.678 50.5937 12.4329
74 158.645 53.2095 13.2727
74 160.948 54.3652 12.3489
74 161.263 57.2193 12.2661
74 403.66 -29.2171 122.077
0 175.32 4.19286 23.8109
0 129.706 15.5258 3.91466
0 190.817 8.82391 29.1907
0 214.74 4.79129 41.0361
0 336.321 -7.13289 89.3718
0 121.449 19.5965 -0.015337
0 135.152 26.1806 6.05815
0 120.433 32.3691 -2.4955
0 121.549 34.003 -0.598225
0 132.547 34.206 1.99985
0 135.93 37.0002 2.88433
74 154.199 35.4867 9.1125
74 151.753 38.8852 7.63846
74 150.401 36.294 10.9394
74 155.41 37.2169 10.7917
74 157.448 38.4744 9.66158
74 158.628 35.7145 13.9336
74 161.443 35.4645 15.3133
74 150.13 40.8182 8.41463
74 155.773 40.4512 10.4239
74 157.847 41.6715 9.26081
74 159.055 38.8538 13.5588
74 160.716 41.5353 10.6743
74 150.563 44.029 7.98443
74 156.143 43.6354 10.051
74 159.484 42.0357 13.1834
74 155.95 48.2093 7.54127
74 154.441 45.5943 10.8474
74 156.513 46.8433 9.74267
74 152.105 48.9255 9.47608
74 156.813 50.0235 9.42903
74 181.042 48.6603 19.7047
74 156.463 54.514 6.93248
74 163.905 54.1122 13.4051
74 165.868 59.8871 10.1047
0 159.241 67.8529 8.81197
0 380.958 -58.0983 113.608
0 325.528 -14.036 84.5019
0 192.612 6.87095 28.497
0 332.295 -8.44758 86.2709
0 120.807 21.0761 -2.23175
0 135.831 22.5938 3.46722
74 208.686 15.2507 31.0287
74 246.469 12.8716 48.102
0 119.317 30.7353 -4.39278
0 127.405 31.2574 -2.99833
0 117.354 37.2812 -6.23467
0 125.442 37.8033 -4.84022
0 132.378 38.7989 -0.535704
74 162.447 34.8563 12.3685
0 141.581 40.9548 2.75602
74 161.733 40.992 7.72155
0 115.864 46.9404 -8.3957
74 155.208 41.8107 8.22857
74 155.605 45.0309 7.86549
74 158.225 44.8828 8.97162
74 159.884 47.529 5.85208
0 142.359 51.7745 -0.417799
74 158.586 48.0876 8.66271
74 416.222 20.9645 113.819
74 158.343 52.6207 6.2065
74 158.582 55.7653 6.08568
74 160.723 57.0028 5.2388
74 163.681 56.6414 6.29275
74 163.864 59.7412 6.01732
74 168.128 64.1158 8.61425
0 387.761 -54.6171 110.569
0 406.337 -54.8981 119.688
74 391.758 -46.5306 111.795
74 392.928 -44.5803 110.818
74 389.957 -43.4602 110.408
0 127.679 5.55795 -2.15169
74 161.203 1.03987 12.8139
74 156.919 3.45418 12.2927
0 129.573 18.0114 -3.42824
0 234.978 5.04298 42.1185
0 386.301 -11.5521 104.707
0 116.612 24.3543 -7.8682
0 128.252 23.0777 -3.05371
0 140.366 24.9146 1.44163
0 186.758 24.4013 18.164
0 129.503 37.0107 -6.54667
0 124.157 40.7624 -9.27305
0 124.799 39.2828 -7.05664
74 162.776 40.4188 4.82992
0 148.857 47.5494 -0.601491
74 162.147 44.2311 7.36679
0 112.143 53.332 -14.3513
74 162.016 48.8249 4.84376
74 160.19 50.7214 5.50486
74 161.367 53.4942 2.6223
74 160.489 53.8591 5.30266
74 161.684 56.498 2.29339
74 366.329 32.4939 87.2458
74 165.018 59.1623 3.06519
74 166.912 59.4483 7.04796
74 168.288 61.919 3.98936
74 166.306 63.8524 4.58361
74 169.861 67.3328 5.53027
0 132.274 74.6903 -11.5799
0 141.587 5.4418 1.65
74 160.896 2.63012 10.3945
0 150.622 12.1907 2.40618
0 386.337 -13.6593 99.8995
0 143.954 21.0086 0.0543198
0 141.518 24.4411 -1.46844
0 136.002 32.7857 -6.73037
0 138.912 32.4665 -5.52674
74 102.545 40.2222 -21.955
0 130.655 36.5373 -9.45674
0 131.298 35.0578 -7.24033
0 137.591 37.5329 -5.15222
0 140.975 40.3271 -4.26774
74 163.27 43.6928 4.45518
74 162.802 48.4155 2.09937
74 162.317 52.9305 -0.299568
74 162.696 55.961 -0.653874
74 164.723 56.2789 3.32845
74 166.095 58.6182 0.111586
0 109.368 65.9503 -20.9451
74 167.994 59.0521 4.08502
74 118.301 80.046 -20.4378
0 383.771 -58.039 102.661
0 128.423 33.2697 -13.2513
0 131.333 32.9505 -12.0477
0 131.976 31.471 -9.83126
0 143.92 37.9007 -7.87147
0 133.396 40.8111 -10.7887
74 162.529 46.3334 -2.51298
0 111.536 52.7043 -21.375
0 122.534 52.9073 -18.777
0 137.084 51.3116 -12.7589
74 164.529 46.4872 1.30177
0 114.919 55.4985 -20.4906
74 163.238 52.3616 -3.23004
74 163.795 55.1727 -3.5629
74 164.25 58.01 -3.85618
0 119.25 64.5195 -20.2444
0 125 82.8805 -20.9555
0 406.882 -55.9992 109.754
0 138.375 12.8395 -9.43207
0 144.125 31.2005 -10.1433
0 122.908 41.6142 -18.5132
0 128.085 42.4555 -18.3224
0 122.739 46.2071 -21.0488
0 131.469 45.2497 -17.4379
0 134.379 44.9306 -16.2343
0 126.764 47.5218 -17.9479
0 131.942 48.3631 -17.757
0 117.865 53.0721 -24.0943
0 120.775 52.753 -22.8907
0 133.058 49.9969 -15.8598
0 124.159 55.5472 -22.0062
0 150.349 52.675 -11.1736
74 164.574 51.6662 -5.96438
0 142.093 56.7458 -15.1036
0 111.502 69.5963 -29.3008
0 139.756 74.5847 -17.2092
0 399.304 -55.5152 103.233
74 102.445 9.35847 -25.6204
74 196.766 2.13224 11.1317
0 139.526 12.3661 -12.3421
0 135.127 22.3444 -15.7068
0 135.769 20.8649 -13.4904
0 136.242 23.9783 -13.8095
0 145.446 26.1342 -10.5178
0 138.136 36.4317 -15.0861
0 125.48 50.4809 -22.3807
0 125.311 55.0738 -24.9163
0 125.953 53.5942 -22.6998
0 131.131 54.4355 -22.509
0 111.234 59.7828 -31.2535
0 102.977 63.8536 -35.1835
0 105.887 63.5345 -33.9799
0 123.347 61.6196 -26.7581
0 126.257 61.3005 -25.5545
0 129.81 59.5018 -22.1345
0 132.551 63.7756 -23.4664
0 141.281 62.8182 -19.8556
74 149.431 -31.0066 -3.87604
74 196.036 3.3605 8.82377
0 127.005 38.7144 -25.027
0 136.209 40.8703 -21.7353
74 331.432 18.8553 59.8361
74 364.576 19.5316 71.3636
0 116.785 49.331 -30.7989
0 137.798 45.6175 -20.1572
0 115.938 57.5107 -30.7435
0 129.846 57.3946 -26.9418
0 118.679 61.7845 -32.0755
0 140.271 40.0778 -23.4417
0 133.603 48.8957 -25.7936
0 125.177 57.5594 -32.2592
0 137.764 62.5096 -28.0829
0 121.251 70.6512 -35.9429
0 160.502 75.8425 -21.2533
74 415.955 -113.015 107.988
74 132.402 8.12999 -23.8209
0 166.431 3.79978 -8.90783
74 128.123 10.5075 -24.3373
74 184.803 10.4529 -3.64075
0 114.215 55.2492 -39.6646
0 117.125 54.93 -38.4609
0 106.601 57.8404 -41.3782
74 132.108 9.703 -26.2178
0 117.026 40.5236 -37.8781
0 100.817 56.3714 -48.5927
0 125.044 60.0451 -39.602
74 330.466 -20.6246 52.3141
0 118.955 50.8698 -43.962
0 133.506 49.2741 -37.9438
0 119.902 57.0965 -44.6002
0 114.555 60.8482 -47.3266
0 110.629 73.9399 -51.0104
0 108.94 54.7863 -52.0056
0 114.386 65.4411 -49.8622
0 110.191 68.7193 -55.4986
74 119.245 90.9323 -54.8425
