ITEM: TIME
40.0
ITEM: TIMESTEP
0
ITEM: NUMBER OF ATOMS
352
ITEM: BOX BOUNDS pp pp pp
-300.694 300.694
-300.694 300.694
-300.694 300.694
ITEM: ATOMS type x y z
74 138.186 114.041 120.576
0 149.185 93.2625 125.521
74 150.916 78.8891 122.757
74 163.306 85.8506 113.901
0 153.572 72.2762 114.165
0 159.111 72.2437 118.571
0 143.589 72.3782 102.84
0 156.692 67.979 120.445
0 148.898 68.155 104.094
0 152.341 65.4979 114.526
74 225.312 121.795 76.9686
0 239.385 129.866 72.6535
74 249.284 133.217 76.801
74 257.644 141.435 69.8054
0 153.53 62.9844 113.013
74 165.286 63.6224 122.508
74 196.591 120.646 49.7187
74 202.223 127.661 45.0796
0 232.94 124.761 72.7607
74 165.024 59.4047 119.312
74 163.889 59.6401 121.852
74 153.64 68.4059 98.8081
74 163.782 60.593 117.024
0 211.347 109.587 61.1374
74 155.704 63.6428 88.4769
74 234.305 116.963 58.7941
0 149.884 59.1176 83.4585
74 153.463 62.0044 79.6239
74 180.882 101.256 29.2111
74 213.645 104.567 49.5417
0 221.523 111.561 42.6737
74 132.747 59.9071 50.7014
74 128.536 84.5898 12.3306
0 192.526 97.9859 35.8227
0 212.563 104.741 43.6542
0 27.1441 16.8743 37.3428
0 191.107 96.3087 34.1832
0 198.741 98.9007 32.5632
74 230.031 90.6144 69.6297
0 225.319 108.211 41.2877
74 183.127 94.9642 22.3426
74 187.085 95.6644 23.9745
74 4.91466 -0.355873 33.8339
74 159.281 71.0281 39.4104
74 238.895 92.4635 63.3225
0 32.3165 5.90975 36.4442
0 32.8053 11.9582 26.7785
74 141.283 59.176 38.2845
74 188.726 79.0405 36.23
0 195.255 92.2659 20.9792
0 195.673 91.3556 26.1318
0 199.188 95.6573 21.7454
0 41.0458 8.53881 32.3114
0 144.683 46.8323 50.1121
74 188.351 106.15 -15.3154
0 25.1283 0.0742777 27.2464
0 29.0607 3.46569 28.0126
74 191.65 75.1731 31.6904
0 -0.37791 0.310694 0.190547
0 24.2214 -5.06382 31.7595
0 29.8544 -7.64685 37.1656
74 191.649 72.6675 32.8741
0 10.3993 -10.9038 20.6685
0 11.9121 -11.7772 23.3082
0 29.0182 -5.82616 26.8605
0 30.531 -6.69951 29.5001
0 30.4371 -4.14896 28.5
0 35.5581 -3.2711 27.7534
74 58.1168 18.8652 13.48
0 22.1309 -0.512102 5.99662
0 30.6955 -2.29127 15.682
0 30.0896 3.72017 8.52916
0 136.334 41.1773 26.4566
0 143.386 40.2715 33.5023
0 141.78 43.6954 29.8625
0 171.407 77.236 -2.58875
0 30.3946 -13.4408 27.3479
0 24.2496 -7.39688 15.7891
0 47.9894 -1.44138 21.2345
0 141.549 39.5046 26.7102
0 175.109 76.4367 -4.97488
0 29.9765 -12.5305 22.1954
0 33.0495 2.19096 -3.16199
74 107.055 15.4608 31.7108
74 105.945 17.3804 33.3394
0 160.704 67.0988 -7.40027
0 196.034 69.5285 13.0098
74 44.3761 -9.42217 19.6536
0 100.149 21.7672 10.4077
74 78.3307 45.3446 -44.0277
0 185.144 64.4923 6.19806
74 8.11267 -27.1926 13.7393
74 43.5153 -15.2075 20.0303
74 47.5722 -12.8389 18.4844
74 44.1731 -12.4749 20.423
74 44.4077 -7.85547 14.6041
74 50.1382 -11.0511 17.6992
74 49.8591 -5.07056 10.5746
0 48.9952 8.32243 -14.0673
0 55.535 10.8775 -13.1743
0 106.877 19.2211 13.3009
0 85.0685 46.9687 -46.6257
74 102.258 49.4336 -35.9502
74 7.88527 -28.3949 11.428
74 42.7439 -18.7948 17.5245
74 48.8458 -12.7884 16.1231
74 51.3567 -11.0292 15.2312
74 52.1982 -8.56984 11.7631
0 55.2108 9.23729 -17.3268
0 56.6297 10.9145 -15.6872
74 76.8772 17.0128 -11.1232
74 82.586 19.0057 -7.9634
0 73.76 42.8429 -58.5901
74 105.858 48.649 -38.1495
74 44.9863 -18.8127 16.1224
74 45.859 -15.8578 12.3709
74 46.7156 -17.2146 17.7054
74 50.0328 -15.3731 14.5962
74 52.2723 -13.7032 13.6769
74 54.8329 -12.0758 12.83
74 65.1508 -0.175871 1.41554
74 77.9082 12.2189 -11.6609
74 80.5266 13.9161 -12.4711
74 81.8324 13.1471 -9.65455
74 82.153 17.8146 -12.1187
0 82.0237 29.9142 -37.2387
0 76.3675 42.0066 -58.4633
0 83.9314 37.6399 -45.2649
74 80.2885 48.2103 -67.0049
0 141.324 42.4901 -8.23094
74 63.6334 -22.5294 27.1643
0 48.9527 -0.969418 -15.2194
74 85.3281 10.6764 -10.2995
0 72.0634 20.5069 -32.7452
74 83.1109 13.4657 -12.1547
0 110.977 -1.28974 30.7337
0 77.138 40.4034 -65.1286
74 87.0805 43.0127 -63.1985
74 112.855 28.9623 -16.2229
74 113.767 31.5709 -19.5476
0 136.555 40.9194 -19.3023
74 64.518 -22.6771 24.6241
74 85.174 8.84878 -14.5162
74 84.3055 8.88697 -12.0124
74 91.7859 4.57653 0.858115
74 84.1887 11.2498 -13.2434
74 92.5794 6.87081 -2.57211
74 86.8173 2.95657 -9.97245
74 88.4178 1.99366 -7.40051
74 84.4482 6.49017 -10.9926
74 90.8726 3.92604 -8.30811
74 92.3702 3.17677 -5.93802
74 94.5048 1.12631 1.88171
74 90.6419 6.44406 -9.42878
74 93.6652 4.72967 -4.12692
74 95.3453 3.69355 -1.54338
0 119.289 2.24967 21.4483
74 158.657 21.5888 15.6098
0 140.863 34.1086 -14.5356
74 159.837 42.565 -15.7357
74 161.552 45.0468 -21.6253
74 162.322 44.2132 -16.7531
74 164.107 46.8192 -22.4116
0 55.5207 -0.74742 -30.2968
74 88.5994 -2.88395 -5.38253
74 84.7644 1.27228 -9.08994
74 88.6252 -0.390081 -6.28621
74 90.1406 -1.23025 -3.68446
74 91.5928 -2.23741 -1.09879
74 93.1884 -2.71275 1.10291
0 108.003 -11.3854 25.3024
74 90.1295 1.21143 -4.7339
74 97.2274 -2.34166 3.17202
74 88.084 5.57458 -13.3887
0 114.543 -8.83038 26.1954
74 158.421 38.5193 -16.3279
74 159.345 40.8976 -19.9594
74 161.039 40.0075 -17.2548
74 164.273 41.7218 -20.6241
74 155.777 65.7647 -66.8219
74 91.0593 -6.33954 -4.31564
74 90.2347 -6.24097 -1.71242
74 92.2084 -3.67795 -7.81553
74 92.6805 -4.63924 -2.86213
74 94.3564 -5.34177 -0.299237
74 95.687 -6.22456 2.43977
74 149.462 30.9026 -17.3839
0 138.679 41.2109 -41.2986
74 152.74 33.0679 -18.4505
74 155.529 32.6848 -18.6045
74 153.025 31.5373 -15.4847
74 153.93 35.9245 -21.8851
74 155.638 35.1991 -19.7183
74 157.997 34.0326 -19.305
74 157.839 36.6788 -20.3769
74 159.495 35.8707 -17.849
74 161.948 34.8201 -17.6441
74 161.899 37.38 -18.6796
74 163.55 36.5489 -16.4079
74 164.499 39.1286 -19.7688
74 166.874 41.02 -20.6436
74 167.646 43.5534 -23.995
0 182.55 51.3707 -27.0216
74 27.1317 -48.7317 8.98522
74 91.0876 -8.80129 -3.25225
0 102.234 -15.5437 17.7441
0 122.319 7.67925 -5.06112
74 151.921 27.7274 -16.1762
74 161.57 33.4181 -21.8222
74 164.598 34.0911 -17.631
0 176.687 49.763 -35.58
0 178.595 57.4886 -43.6062
74 68.2515 -32.1059 10.003
74 51.1959 -16.6964 -28.1824
74 71.4995 -27.8024 5.78493
0 85.2924 -17.0865 0.373607
0 141.545 42.2322 -53.9899
0 170.801 57.6646 -59.9569
0 178.759 61.8968 -57.4244
74 74.2128 -33.7832 7.74092
74 73.9177 -31.2877 6.81139
0 118.786 -15.4237 13.9916
0 104.565 -1.55215 -16.9183
0 116.667 -8.5389 4.19908
0 111.664 14.0101 -40.5093
74 202.696 63.7509 -50.4146
74 65.2052 -40.4904 8.75319
0 111.781 1.95026 -23.6908
0 183.232 59.4943 -66.4758
0 121.628 -4.89301 -14.5181
74 131.536 11.1577 -32.0259
74 132.799 11.3731 -28.1012
0 163.87 18.2 -19.6993
0 178.834 40.5451 -41.7579
0 179.276 65.6122 -83.0605
0 189.936 66.4576 -79.401
0 180.348 75.1585 -101.392
0 100.567 -4.72608 -34.655
0 169.597 13.0664 -13.2931
74 210.697 19.7953 6.19022
0 125.495 -1.28412 -30.7224
0 151.561 11.4867 -28.1506
0 156.682 12.3645 -28.8972
74 160.563 59.812 -99.9967
0 169.575 58.0625 -91.385
74 179.584 65.492 -93.8931
0 181.118 73.5553 -108.057
74 205.508 80.2561 -101.849
0 122.563 -2.08798 -35.0016
0 147.722 5.54473 -27.9167
0 153.773 2.05135 -17.358
0 157.358 13.3119 -36.5627
0 180.539 6.26017 -6.63327
0 155.056 -3.01274 -17.8707
0 148.911 3.03118 -29.4295
0 154.544 0.448146 -24.0234
0 154.032 3.90904 -30.1761
0 157.546 8.21079 -34.5624
0 157.964 7.30045 -29.4098
0 150.983 15.1651 -51.2738
0 163.085 8.17831 -30.1564
0 171.65 6.39913 -20.4711
74 181.743 67.2475 -115.28
0 149.192 -4.62047 -26.4291
0 150.705 -5.49381 -23.7894
0 155.22 1.39549 -31.6888
0 154.126 1.35849 -29.1759
0 156.639 3.07269 -30.0493
0 159.247 2.23635 -29.9225
0 158.735 5.69724 -36.0752
0 158.223 9.15813 -42.2279
0 164.692 4.75441 -26.5166
0 162.249 9.99899 -40.4616
0 174.817 18.57 -44.8283
0 174.723 21.1206 -45.8284
74 184.278 63.9533 -114.177
0 151.382 -4.54647 -31.4549
0 159.434 -2.86475 -27.9223
0 160.947 -3.73809 -25.2826
0 157.41 1.46949 -36.7146
0 157.828 0.559145 -31.5621
0 159.34 -0.314199 -28.9224
0 168.488 1.40452 -27.9026
0 166.881 4.82841 -31.5424
0 171.001 3.11873 -28.776
0 170.395 9.13016 -35.9288
74 160.406 18.3355 -60.4715
0 152.57 -7.06002 -32.9677
0 150.964 -3.63612 -36.6075
0 155.084 -5.34581 -33.841
0 156.597 -6.21916 -31.2014
0 159.11 -4.50495 -32.0747
0 155.991 -0.207716 -38.3542
0 158.504 1.50649 -39.2275
0 159.087 5.00438 -47.8931
0 163.625 2.38435 -39.9741
0 162.531 2.34735 -37.4612
0 168.07 2.31486 -33.0552
0 170.165 4.93941 -39.0811
0 177.729 0.572693 -25.8828
74 161.853 13.2086 -61.0415
74 160.629 13.2208 -58.5496
74 160.43 16.5573 -64.5217
74 161.527 15.7534 -62.0407
74 163.089 14.9948 -59.3762
74 164.169 17.5218 -62.7916
0 155.178 -7.89636 -32.8409
0 157.691 -6.18216 -33.7143
0 171.377 -7.08347 -24.7755
0 174.891 -2.78172 -29.1619
0 183.828 13.5474 -45.9608
0 148.431 -24.1515 -21.0678
0 162.394 -4.39395 -39.6134
0 167.515 -3.51609 -40.36
0 155.319 6.0212 -62.4775
0 170.447 -2.71223 -36.0808
0 156.648 -18.0616 -31.3533
0 181.178 5.09193 -47.2396
0 165.471 -17.983 -34.486
0 171.499 -11.9671 -39.7458
0 176.037 -14.5871 -31.8267
0 180.111 2.72186 -60.6971
0 157.677 -17.8071 -50.8367
0 163.122 -15.289 -47.4309
0 154.769 -28.1203 -39.2976
0 173.876 -16.9942 -42.7713
0 164.499 -22.9037 -46.9434
74 249.138 -10.6816 -5.26213
74 159.826 -61.3402 4.75516
0 167.783 -22.7927 -54.4821
74 172.698 -38.2579 -51.9389
74 172.95 -40.1862 -50.5049
74 174.658 -39.5818 -48.6119
74 171.583 -34.2102 -59.8569
74 171.97 -36.2453 -58.3338
74 173.502 -36.4144 -55.3659
74 174.211 -37.1392 -49.9094
74 176.047 -38.4251 -46.6291
74 169.362 -32.6779 -59.7324
74 170.679 -33.4539 -57.3721
74 174.756 -33.4418 -58.5211
74 170.217 -42.0853 -54.6358
74 169.796 -43.5438 -51.3192
74 172.178 -43.4686 -47.7015
74 169.92 -39.852 -56.2965
74 169.585 -41.0283 -52.022
74 175.807 -41.7989 -50.1386
74 168.441 -35.9406 -63.5977
74 172.278 -36.8395 -61.6184
74 171.193 -37.9619 -54.7883
74 170.024 -35.1666 -61.6587
74 169.896 -53.9693 -55.6754
