ITEM: TIME
40.0
ITEM: TIMESTEP
0
ITEM: NUMBER OF ATOMS
370
ITEM: BOX BOUNDS pp pp pp
-300.694 300.694
-300.694 300.694
-300.694 300.694
ITEM: ATOMS type x y z
0 24.4139 47.3723 -27.2555
0 49.632 45.3112 -42.3869
0 47.1242 48.6874 -39.2461
0 40.7462 45.5429 -26.6035
0 43.2718 30.3863 -40.1941
0 44.5754 37.034 -31.1468
0 48.0373 44.1232 -28.8258
74 24.3763 54.8824 3.98799
0 44.8076 28.325 -38.347
0 49.5731 42.0619 -26.9787
0 50.4481 42.5669 -24.4305
0 42.3992 48.3728 -13.9708
0 51.1088 40.0006 -25.1317
0 55.8922 41.9571 -24.2131
0 55.2315 44.5234 -23.5119
0 39.8659 6.4476 -45.0928
0 38.0189 7.25749 -42.6531
0 40.2153 2.62983 -41.5073
0 46.185 6.34281 -42.3272
0 45.213 7.65771 -37.3393
0 57.4816 4.55476 -53.7153
74 -10.7338 2.71682 7.40482
0 51.9428 25.4759 -17.625
0 60.1702 46.302 -3.93565
0 69.6197 45.3239 -12.8842
0 0.394141 -0.788191 1.3489
0 31.776 -2.77611 -29.6746
0 44.9196 -5.37406 -43.5024
0 44.3761 2.08351 -32.0155
0 42.7433 5.96475 -26.3264
0 71.8162 40.6962 -11.7384
74 104.17 29.6269 -54.6787
0 3.1162 -1.09309 1.45756
0 39.7279 -6.76213 -32.5981
0 53.3 -3.2174 -39.9269
0 44.0648 0.832084 -27.7289
0 49.8202 1.47373 -31.7982
0 15.6984 15.5469 9.56643
0 62.1703 26.8227 -16.4891
0 63.0453 27.3277 -13.9408
0 11.7109 4.1349 8.28255
0 49.0803 -5.92038 -34.0105
0 45.3863 -4.30058 -29.1313
0 51.3559 -0.587602 -29.9511
0 37.5516 4.57668 -15.4222
0 18.5556 8.35289 10.011
0 91.5289 17.5041 -40.4505
74 79.4881 33.5566 -8.59299
0 7.50913 -10.3484 3.74918
0 51.9375 -13.1144 -33.5659
0 49.644 -6.6668 -27.1756
0 65.4918 2.21069 -30.445
0 29.8545 25.0563 27.3944
0 42.3374 25.0247 14.2679
0 107.298 16.4212 -46.6334
0 85.5616 32.2827 -10.8591
74 -14.2335 -27.9323 6.42196
0 16.5324 1.02225 17.0732
0 49.547 -4.8469 -19.6395
74 66.2802 14.4603 -7.8033
74 62.6109 16.1589 -3.08951
74 63.6241 17.7278 -5.00241
74 62.8284 12.944 -6.42058
74 61.5988 14.3492 -1.33542
74 67.06 15.1296 -5.33584
74 59.0574 17.2622 1.7343
74 60.0254 17.6848 4.32168
74 58.313 18.5048 6.39184
74 58.5883 18.6025 9.59341
74 59.5796 20.3953 7.73824
74 58.5356 21.7444 12.9118
74 56.7391 22.4194 15.4392
0 100.491 7.13403 -40.4898
74 71.4366 30.1428 8.53091
0 96.4498 31.0631 -10.4245
74 39.3125 -24.8855 -21.5831
0 27.7498 -10.7262 2.77146
74 52.2845 13.5546 14.8336
74 64.7118 11.671 -2.01787
74 58.2935 14.4219 10.515
74 54.6187 16.7798 11.53
74 54.3325 15.8841 15.6139
74 50.8341 18.3926 16.5574
74 68.6544 13.1006 -3.52805
74 62.5399 14.5263 1.28014
74 63.1875 15.0219 3.93424
74 61.4458 15.5883 6.25101
74 59.4613 16.183 8.79267
74 57.4524 16.8467 11.3074
74 56.641 19.2098 12.1938
74 55.4861 17.5498 13.9184
74 56.3016 18.3126 16.3914
74 54.4495 19.0693 18.9289
74 52.5634 19.8753 21.3559
74 49.1455 22.3096 25.4693
74 59.3802 19.3993 12.0821
74 57.4612 20.0009 14.6546
74 55.6308 20.7447 17.2029
74 56.4533 21.5925 19.6698
74 53.7979 21.5079 19.6837
74 54.9708 22.6999 21.7694
74 53.2466 23.6753 23.8334
74 56.2546 24.8558 16.3326
0 132.732 35.9229 -29.7438
74 171.238 75.5975 -19.0923
0 13.2235 -24.7364 4.63833
0 46.7661 -7.7913 -4.33994
0 38.6202 -0.165468 13.6558
74 48.2845 11.8065 16.7434
74 46.8165 11.5465 18.9828
74 55.9017 10.983 13.8869
74 49.4711 13.4966 15.0818
74 51.9024 12.551 18.9874
74 47.6669 14.2664 17.6148
74 49.9579 13.4114 21.4914
74 61.6418 12.0809 9.78682
74 57.0984 12.6892 12.2363
74 55.0561 13.446 14.6735
74 53.1402 14.2044 17.2847
74 51.272 15.0154 19.8022
74 51.9716 15.762 22.2651
74 49.989 16.6011 24.5853
74 65.8782 12.0592 0.525641
74 64.0886 12.5258 3.03409
74 62.1264 13.0664 5.51181
74 62.8331 13.8379 8.09097
74 55.1385 16.597 18.1194
74 53.2656 17.4002 20.6093
74 51.3792 18.2496 23.0648
74 47.6171 20.0581 24.6396
74 53.686 21.0093 23.4763
0 112.022 15.1285 -30.3066
74 127.633 12.5451 -47.4159
0 142.513 42.9074 -24.6572
74 152.542 55.723 -20.0524
74 147.699 57.6387 -14.4786
74 155.247 58.253 -16.8132
74 151.969 58.6629 -16.7338
74 151.975 59.3376 -14.0618
0 35.1582 -7.25468 11.3348
0 42.0029 -3.03669 13.0633
74 53.0007 7.3323 14.6316
74 50.9574 8.08848 17.0001
74 59.2994 8.52465 13.1917
74 52.1398 9.79785 15.2547
74 66.9402 8.89221 6.77267
74 65.0615 9.70961 9.15457
74 57.8853 10.2588 11.4222
74 65.6359 10.6488 5.02253
0 109.007 2.40158 -36.5784
0 107.802 12.4255 -24.3903
0 104.108 14.0453 -19.5111
0 109.417 20.3246 -19.6296
74 163.895 16.5124 -68.8401
74 160.558 15.5656 -65.8844
0 135.804 31.8003 -26.0497
0 144.593 33.3885 -34.297
74 147.465 56.2988 -10.277
74 148.234 56.6882 -7.62443
74 155.562 56.465 -14.8825
74 152.965 56.9331 -14.816
74 153.697 57.3069 -12.2978
74 152.879 59.7676 -11.6193
74 151.846 58.186 -9.59515
0 37.1226 -3.17333 19.6809
74 65.5858 7.10432 8.4213
74 63.7551 7.8619 10.8785
74 91.8711 7.99209 -11.4877
74 93.8787 10.3705 -10.5577
74 91.8696 11.1995 -8.70532
0 117.583 19.4099 -19.3037
0 128.88 17.6219 -30.6918
74 145.261 13.0861 -50.8189
74 164.536 12.7932 -66.9285
74 166.098 16.0996 -64.7843
74 145.759 55.7653 -3.20679
74 160.774 55.5094 -14.9028
74 156.562 54.014 -15.5466
74 158.974 56.5417 -12.4366
74 156.348 56.9082 -12.3804
74 157.179 57.3938 -9.89363
74 149.218 57.1213 -5.08637
74 150.875 59.3446 -4.36806
74 154.526 57.7678 -9.78906
74 155.364 58.2327 -7.29198
74 152.706 58.6621 -7.07241
74 153.556 59.1465 -4.58671
0 34.3214 -12.8289 16.6586
0 43.2274 -6.34945 19.197
0 45.2887 -4.08802 20.0069
0 95.141 -14.1749 -35.4127
0 97.6309 -5.7708 -28.1038
0 110.017 -3.98251 -33.6942
0 99.9065 -0.438027 -24.0444
74 91.3484 7.00029 -7.26008
74 94.6116 7.81838 -11.3312
0 111.088 11.3742 -17.4467
0 122.599 12.6575 -25.5853
0 108.795 17.8217 -11.0564
74 155.697 0.92138 -67.296
0 132.691 20.8933 -24.7853
74 162.436 53.7956 -13.2539
74 147.614 56.9391 1.78308
74 161.591 56.1849 -12.4887
74 160.696 54.5787 -10.5173
74 159.83 57.0375 -9.96059
74 158.873 55.4014 -7.99358
74 158.03 57.8856 -7.41044
74 157.113 56.2564 -5.42328
74 155.454 57.1437 -2.81136
74 151.794 59.8407 -1.85494
74 150.006 60.5197 0.762492
74 150.913 61.0496 3.29868
74 156.227 58.7439 -4.80476
74 154.453 59.6492 -2.08002
74 157.061 62.2162 0.619555
74 152.731 60.4105 0.671841
74 153.655 60.9602 3.2153
74 150.467 62.5338 8.50688
74 150.825 65.5212 11.6981
74 151.952 70.3807 13.4541
74 0.738231 -60.797 -2.11917
0 34.6708 -16.6466 20.244
0 47.7965 -7.46425 16.866
0 51.5721 19.3679 43.6719
74 92.049 4.42887 -7.86193
0 110.134 0.908729 -22.9086
74 95.9933 5.76894 -9.43619
74 94.0598 6.70243 -7.14695
0 109.473 3.47506 -22.2073
0 113.596 7.99794 -20.5875
0 133.798 12.6893 -29.4373
0 120.869 18.3586 -12.3601
74 163.329 54.2327 -10.7291
74 162.442 52.6292 -8.61433
74 161.506 55.0549 -8.06919
74 160.655 53.4679 -6.06041
74 159.722 55.9609 -5.52531
74 162.229 58.3141 -2.54863
74 158.089 56.8125 -2.90277
74 151.298 60.0603 7.69469
74 159.655 61.7338 0.664424
74 157.844 62.7228 3.02108
74 158.691 63.0962 5.48127
74 155.61 63.3432 4.30883
74 156.488 63.8882 6.81221
74 153.105 62.2035 8.34067
74 152.18 64.737 9.29386
74 151.436 66.0964 14.2928
74 155.826 66.4462 7.78972
74 153.508 65.4449 11.7059
74 155.08 67.7544 12.5067
0 50.2072 -9.02057 21.2613
74 105.509 -31.3251 -48.5888
0 97.8833 -7.76866 -16.9823
74 95.6869 4.67319 -5.1854
0 116.764 2.05538 -24.4296
0 114.16 7.25151 -13.7526
0 123.609 6.27336 -22.7011
0 126.857 10.2912 -23.6296
0 124.038 12.416 -16.2021
0 173.214 35.1673 -31.6993
74 165.376 52.3813 -7.53254
74 163.21 53.1546 -6.10943
0 181.888 50.3557 -21.9607
74 26.4549 0.979986 56.5326
74 58.0329 11.0909 44.0122
0 99.8476 -3.68732 -8.63624
74 58.8239 13.8422 44.1092
0 107.664 -0.784236 -11.8957
0 131.229 -5.67524 -39.6598
0 112.759 2.42374 -15.2637
0 116.667 3.87528 -16.8935
0 133.158 21.9668 -10.4143
0 131.311 22.7767 -7.97469
0 183.62 63.1461 -6.41441
0 181.229 71.4135 7.51206
74 186.624 88.4505 23.2375
0 44.8191 -25.2603 18.4663
0 41.125 -23.6405 23.3455
0 51.0031 -18.476 20.896
0 113.223 -14.9943 -29.6642
0 112.251 -13.6794 -24.6763
0 109.182 8.93478 0.401103
0 122.326 6.33683 -13.4266
0 130.803 6.67358 -17.3873
0 160.981 14.7096 -36.2227
0 167.264 38.1655 -12.5577
0 186.013 73.3701 8.43062
74 34.1978 -41.4631 12.9881
0 106.185 -15.5724 -16.3204
0 102.705 -10.8813 -8.19167
0 87.6963 4.30687 18.5254
0 124.308 -1.36217 -15.5303
0 118.106 3.63386 -7.51027
0 151.649 20.579 -16.4886
0 182.007 73.7384 17.5965
0 190.038 79.7129 17.5866
0 49.9519 -27.1215 22.9703
74 108.591 -39.2892 -40.3319
0 122.711 -21.0416 -30.7407
0 111.629 -16.1822 -16.103
0 147.133 -13.6473 -45.5068
0 148.008 -13.1423 -42.9585
0 175.43 37.2508 -12.2317
0 185.755 36.7776 -18.6319
0 185.408 59.0869 6.55418
0 182.686 59.3918 6.44551
0 183.775 62.9681 12.2433
0 140.424 -24.7544 -46.8993
0 133.331 10.0085 -2.20633
0 177.18 38.2608 -7.13513
0 195.617 72.214 18.1398
0 200.498 72.3506 11.5222
74 118.193 -58.8518 -59.4484
0 141.959 -26.8157 -45.0523
0 153.256 -28.6037 -56.4404
0 151.409 -27.7938 -54.0008
0 185.89 29.8885 -18.296
0 184.571 53.5127 11.878
0 190.969 63.3683 17.5571
0 194.878 64.8199 15.9274
0 193.031 65.6298 18.367
74 215.019 73.9819 10.7193
74 136.409 -37.2578 -42.9441
0 180.056 19.2864 -17.1403
0 187.525 44.4988 4.7864
0 186.864 47.0651 5.48763
0 192.076 55.1643 12.9052
0 193.263 56.9208 11.1668
0 191.416 57.7307 13.6064
0 193.691 63.0634 17.6658
0 194.566 63.5684 20.2141
74 217.665 73.4507 10.7308
0 161.011 -47.4414 -73.0632
0 156.345 -44.5067 -63.1961
0 194.717 26.4075 -18.6712
0 191.551 50.8416 13.9423
0 193.612 53.103 14.7522
74 135.253 -76.8405 -77.4043
74 151.076 -58.4137 -69.7961
74 149.339 -57.7388 -67.5992
0 160.7 -48.6929 -68.7765
0 193.862 32.6137 -2.89773
0 188.964 44.2574 14.1696
0 195.148 51.0417 16.5993
0 202.518 59.5824 17.2906
74 151.968 -57.9172 -67.1567
0 186.806 43.8158 20.8958
0 194.604 58.4992 28.0861
74 159.639 -75.054 -82.5395
0 155.741 -58.7899 -65.0725
0 156.616 -58.2849 -62.5242
0 159.649 -57.3384 -66.7022
0 161.924 -52.0056 -62.6428
0 198.648 53.0617 26.7923
0 198.862 56.133 30.0418
0 149.595 -70.6434 -59.6301
74 110.856 -47.6768 -2.8285
74 115.275 -47.1009 1.70288
74 158.341 -132.064 -117.935
0 155.406 -86.8513 -66.2771
0 156.807 -82.0236 -64.766
0 161.144 -74.4294 -59.8967
74 154.982 -97.1364 -70.6229
74 158.82 -96.9585 -68.1287
0 164.154 -100.293 -69.566
0 166.215 -98.0314 -68.7561
74 178.412 -124.253 -84.8574
74 183.661 -115.738 -79.709
