ITEM: TIME
40.0
ITEM: TIMESTEP
0
ITEM: NUMBER OF ATOMS
290
ITEM: BOX BOUNDS pp pp pp
-300.694 300.694
-300.694 300.694
-300.694 300.694
ITEM: ATOMS type x y z
74 181.81 -82.0546 202.27
0 152.164 32.8871 157.117
0 160.346 33.0419 157.931
0 169.254 31.7392 160.949
0 164.639 34.2281 160.708
0 169.852 34.8172 160.515
0 155.923 36.3911 152.515
74 140.032 4.687 152.967
74 170.548 -81.1492 174.722
0 171.894 -80.821 174.283
74 182.208 -84.3762 179.194
74 172.416 -79.3441 174.688
74 164.942 30.3098 150.707
74 172.813 -81.8542 173.626
74 169.724 8.3103 151.517
0 161.068 46.9113 141.869
74 169.283 9.80367 149.297
74 145.921 36.7835 135.341
0 163.387 -61.9738 157.738
74 146.193 32.7434 132.498
74 148.292 34.2855 132.805
74 145.893 38.4414 131.125
0 146.994 37.1966 134.407
0 177.362 -73.9761 161.102
74 174.709 -67.8045 159.735
74 147.059 34.2157 130.501
0 147.315 33.5214 131.871
0 176.038 -75.5966 159.331
0 166.452 -25.3641 144.575
74 165.535 29.0897 132.772
74 188.526 54.5011 136.045
0 166.757 -44.8634 145.217
74 189.287 44.5673 135.061
0 180.298 -32.831 145.3
0 168.307 -10.7345 135.459
0 150.039 0.0815424 129.318
0 175.115 -59.6725 144.034
0 162.656 -45.1894 137.266
0 165.191 -21.5889 134.991
0 161.512 -3.87313 128.602
0 158.559 12.3852 124.419
74 162.39 -16.3578 128.641
74 160.107 -16.2911 124.951
74 160.935 -13.2264 124.469
74 163.085 -16.7517 125.948
74 166.026 -17.28 126.873
74 157.854 -12.7065 123.52
0 162.443 -46.5469 127.351
0 189.332 -23.3424 132.692
74 166.728 -17.794 123.795
74 168.315 -16.3459 125.487
74 161.629 -13.8811 121.47
74 164.552 -14.2485 122.588
0 187.557 -16.7522 130.817
0 187.427 -12.2167 128.178
0 169.898 -44.9346 125.96
74 160.029 23.7379 110.099
0 166.073 -38.5075 120.109
0 193.412 -23.5136 125.554
74 191.208 -60.9607 128.185
74 189.371 -59.0308 128.996
74 185.198 -56.3786 128.731
0 184.374 -17.6754 119.896
0 158.843 -7.61132 109.971
0 167.443 -47.3154 117.244
74 149.043 -31.4658 105.856
0 202.513 -23.956 123.398
74 147.95 -33.2063 104.103
74 214.674 -27.5103 124.095
74 216.729 -26.245 124.266
0 165.296 -11.2948 104.274
0 156.985 -6.91407 100.821
0 163.195 -58.93 109.831
74 164.182 -34.5295 104.529
74 166.327 -36.0399 108.008
74 216.604 -30.3431 121.537
0 153.869 -17.7685 100.353
0 179.705 -47.3318 110.92
74 165.907 -36.6339 103.773
0 102.547 11.4306 75.2254
0 122.607 9.84843 80.0641
0 104.21 25.2 71.2835
74 197.253 -11.6372 106.511
0 122.478 14.3839 77.4248
0 146.99 -16.8 86.2208
0 101.286 15.2058 65.6409
0 128.012 11.2977 74.697
0 107.822 17.4153 67.2192
0 138.42 -3.34838 77.4894
0 105.901 12.7169 65.8826
0 114.405 9.19644 64.1611
0 116.326 13.8949 65.4976
0 122.136 17.5619 64.8708
74 154.46 15.4216 76.0191
0 118.118 23.1288 64.1949
74 154.805 -57.8981 87.4618
0 170.066 -29.2448 87.4293
0 117.082 -13.815 66.2437
0 130.769 9.50597 65.7885
74 143.222 14.8432 69.3109
74 145.718 14.729 70.4008
74 157.766 18.7568 71.6024
74 143.274 11.3186 66.7727
0 165.317 -80.121 89.4443
0 151.698 -40.1457 77.1898
74 182.879 -34.6508 84.9983
74 16.4484 -5.7737 26.0041
0 136.495 7.28002 57.8861
74 100.682 2.01412 43.8286
0 102.665 -20.3517 46.2272
74 102.224 4.43084 40.4655
74 103.111 2.92505 42.5356
74 103.657 5.97154 42.1619
74 105.975 6.8969 40.9008
74 101.836 12.0279 40.3383
74 105.501 14.8131 40.7822
74 103.689 6.78506 37.0978
74 102.983 7.02722 39.8082
74 106.031 11.0074 38.3396
0 37.4146 10.4213 13.0989
0 -0.287114 -0.35489 0.225806
74 137.923 -16.7349 45.4724
0 4.92525 0.234116 0.0332735
74 139.283 -14.3531 42.1722
0 97.4486 -5.61388 28.153
0 94.4957 10.6444 23.9693
0 66.2998 1.64348 13.6807
0 18.6412 -2.69732 -1.88084
74 58.8423 3.06674 8.38047
74 53.1629 4.20573 6.75286
74 56.4941 6.68963 6.98222
74 56.1627 3.61349 7.6492
74 62.399 5.78769 9.0854
0 98.238 -1.67567 22.5442
0 106.128 -24.0981 24.4343
0 18.2361 -4.91503 -6.62112
74 61.561 0.666436 4.91639
74 50.56 5.16122 0.363074
74 52.3387 5.37866 4.41072
74 54.5544 6.32963 3.18781
74 56.395 4.33579 2.41953
74 58.2662 4.655 6.28798
74 63.1663 5.38746 6.03882
74 65.0362 3.39423 5.54644
74 51.1286 8.28246 0.0527496
74 57.9422 9.07225 3.62925
74 59.808 7.12096 2.98546
74 61.5283 7.36213 7.02871
74 11.5763 -2.07301 -13.3946
0 26.418 -4.76027 -5.80742
0 54.2088 2.02296 -0.259054
0 89.8432 -3.18791 11.8157
0 93.5395 -5.07963 15.0269
74 64.2437 4.4862 3.15402
74 52.7144 6.30264 -0.80415
74 58.7952 8.61184 0.863398
74 57.136 10.5965 1.6021
0 94.6045 5.61175 11.5192
0 29.7092 -8.86971 -7.33647
0 103.818 -15.1902 15.1801
0 94.4584 -5.67687 12.0574
74 63.5226 6.0763 1.08446
74 66.4895 5.46036 1.9716
0 101.592 -0.389414 13.2014
74 52.5945 50.5104 -11.4598
0 97.1523 -12.8643 10.9626
0 101.333 8.68149 7.92294
74 155.543 -0.0311091 25.6765
0 93.0216 13.0622 4.47001
0 79.2556 41.7488 -7.24627
74 56.4807 49.5244 -13.4582
0 80.1079 -22.1447 2.49389
0 94.375 -11.5698 4.78186
0 93.1971 -1.90165 2.47292
0 121.247 -4.18932 13.2998
0 86.2097 4.09951 0.790744
0 100.928 6.46377 3.18267
0 92.4704 -0.444168 0.267923
0 107.189 1.92009 2.65985
0 84.7563 7.01448 -3.61925
0 99.604 4.84329 1.41191
0 97.6995 15.9689 -3.10203
0 91.9065 28.126 -5.65268
0 88.4986 -5.30562 -5.04435
0 78.5417 1.12979 -7.73275
0 90.4365 15.2169 -6.88525
0 93.406 14.7827 -5.87902
0 93.2765 19.3181 -8.51825
0 92.8254 27.5288 -8.6222
0 99.6501 -5.58509 -3.22442
0 108.559 -6.88781 -0.205725
0 103.217 -2.94136 -2.65243
0 100.715 5.1063 -6.73213
0 103.685 4.67206 -5.7259
0 104.411 3.21457 -3.5209
0 98.3428 8.6185 -8.1726
0 102.636 9.80475 -5.39561
0 85.2868 20.0236 -14.5065
74 174.028 7.62584 14.6185
74 43.9456 -36.9999 -18.5369
74 152.177 -16.4158 9.32079
0 112.447 -7.91928 -2.16901
0 97.4699 -1.21263 -9.8394
0 96.4216 3.92005 -9.50911
0 105.33 2.61734 -6.49042
0 105.927 5.6953 -6.92466
0 161.622 -1.09776 9.98873
0 173.5 -2.83472 14.0137
0 209.134 -8.04559 26.0884
0 105.798 10.2308 -9.56389
0 171.854 -0.779994 14.7782
0 165.786 4.62394 10.1265
74 172.051 7.36791 10.8333
0 105.506 -12.3465 -8.48752
74 153.57 -18.5031 8.39325
74 211.305 -20.6135 26.6208
0 105.055 -4.13583 -8.59147
74 198.077 -17.1872 22.1004
74 214.765 -18.0841 27.0781
0 158.377 -7.41669 6.88146
74 134.098 1.84666 -0.163675
0 204.114 -7.77435 21.1064
0 215.992 -9.5113 25.1314
0 103.747 10.0678 -13.5396
0 208.408 -6.5881 23.8834
0 86.6901 42.8639 -23.7269
0 81.3483 46.8103 -26.1736
74 109.687 44.7346 -18.0583
0 113.09 -15.2697 -7.23958
74 175.292 -17.3718 9.91486
74 177.326 -17.4886 13.8392
0 104.198 1.8571 -13.4357
0 127.955 -1.61681 -5.38585
0 127.825 2.91864 -8.02508
74 219.233 7.77102 20.2455
0 91.1925 60.7344 -29.3018
0 100.937 -20.2859 -13.3655
74 176.799 -14.9849 6.68013
0 114.815 3.89536 -18.9953
74 100.214 51.3686 -32.1129
0 110.522 2.70912 -21.7723
0 105.648 14.269 -27.2924
74 40.2171 -48.3208 -37.2747
74 139.039 -33.0023 -9.82756
74 116.168 13.1469 -26.3956
74 215.13 -19.3139 5.81011
0 89.8145 26.9686 -39.807
74 112.902 15.4992 -36.3793
74 114.251 14.7853 -38.536
74 112.444 16.9884 -38.6516
74 110.329 20.6662 -39.9484
74 110.897 19.0165 -37.8082
74 117.176 10.4772 -39.8242
74 115.158 13.802 -41.1085
74 113.339 12.4551 -39.6163
74 110.573 17.2782 -43.1174
74 111.094 15.8213 -40.898
74 116.107 20.4643 -42.6793
74 71.0484 4.41977 -56.9515
74 118.097 9.88944 -42.787
74 116.099 13.2355 -44.1828
74 116.778 11.9848 -41.9615
74 111.962 15.1572 -44.0174
74 116.389 16.6401 -44.5997
74 116.938 12.9085 -46.9716
74 115.203 11.1725 -45.7913
74 112.88 14.6384 -47.0364
74 113.798 17.0435 -47.9322
74 119.746 8.75409 -48.716
74 115.922 11.3009 -51.0741
74 116.096 10.6548 -48.4627
74 114.317 13.3658 -50.4012
74 114.778 16.5042 -50.9743
74 116.23 7.92491 -53.7422
74 115.123 12.7029 -53.3683
0 127.717 11.8553 -48.6567
0 123.44 26.4932 -54.6111
0 123.954 23.6782 -62.3209
74 150.051 -22.268 -47.734
74 106.047 3.25584 -66.5021
74 108.204 6.51912 -71.1973
74 137.195 4.23916 -61.7615
74 120.433 -14.6605 -66.5356
74 137.452 0.602879 -64.3127
74 140.985 3.20964 -63.6731
0 129.534 10.1636 -69.685
0 136.217 23.6618 -68.645
74 102.39 10.7795 -83.9359
74 142.245 17.2819 -76.6509
74 141.301 18.9824 -78.6273
