ITEM: TIME
40.0
ITEM: TIMESTEP
0
ITEM: NUMBER OF ATOMS
1748
ITEM: BOX BOUNDS pp pp pp
-300.694 300.694
-300.694 300.694
-300.694 300.694
ITEM: ATOMS type x y z
0 -0.290833 0.590665 0.608428
74 12.9866 -0.755064 10.8744
74 12.1344 2.49475 8.1582
74 30.3796 33.9804 1.85749
0 18.4455 3.59729 5.15174
0 21.9808 5.8474 6.72575
0 23.4644 -1.68676 7.79846
0 17.5883 1.82682 3.24252
0 21.1236 4.07693 4.81653
74 29.1836 2.33126 11.1746
74 31.177 2.68565 9.6359
0 22.4144 6.90808 4.2355
74 29.8921 8.90024 10.0401
74 38.1462 9.43998 -5.407
0 45.429 -1.62068 -3.43625
0 41.4803 -4.22968 -16.2994
0 42.3375 -2.45921 -14.3902
74 39.2491 -6.90971 -22.4674
74 45.5429 7.27323 -25.3605
0 74.5505 -2.58792 -3.80633
74 81.9422 2.89195 -8.79319
74 105.242 -4.49361 -18.6928
74 111.342 -7.85616 -12.2893
0 109.048 -1.89407 -18.6263
74 148.861 13.8291 3.26529
0 113.21 -8.94859 -17.8887
0 136.849 -6.74515 2.25384
0 141.771 -6.84655 4.07368
74 150.535 12.4184 1.6232
0 158.167 1.92377 5.63507
0 139.113 -6.6244 -9.37054
74 144.501 -10.7856 -12.8008
74 161.108 -1.19553 -15.4791
74 159.807 1.1806 -15.9379
74 271.994 32.5507 59.0873
0 247.301 44.742 24.3066
74 240.878 33.3466 21.379
74 244.614 34.4294 24.7543
74 243.975 37.7771 22.2249
74 211.115 29.5146 -6.13704
74 240.969 29.0254 19.3506
74 241.755 30.7707 21.2515
74 244.411 31.0799 20.8691
74 244.107 34.7262 18.4967
74 245.127 32.8336 22.7099
0 159.893 -14.2212 -26.0871
74 238.097 21.9555 15.9138
74 238.467 24.5 17.8775
74 239.47 25.518 15.6672
74 238.358 27.9046 15.704
74 242.843 27.6618 17.1434
74 243.611 29.372 18.9966
74 246.232 29.7407 18.5917
74 245.165 32.2165 18.4991
74 247.81 32.5822 18.0887
74 248.597 34.4052 19.7446
74 212.011 -29.1442 19.176
74 210.29 -28.3141 21.2438
74 212.772 -22.6936 20.0461
74 216.765 -24.2364 19.9487
74 239.879 21.2957 13.8374
74 238.752 23.7155 13.8491
74 243.25 23.4434 15.3481
74 240.185 26.5729 13.3423
74 242.796 27.0232 12.9168
74 245.457 28.0155 16.7194
74 248.09 28.3351 16.3597
74 248.846 30.0994 18.1976
74 249.787 31.8543 16.3176
74 213.767 -30.6081 16.9575
74 213.489 -26.5071 18.3068
74 214.489 -23.9663 17.6149
74 215.623 -21.0679 17.1673
74 219.966 -22.7052 17.1786
0 165.5 -1.48504 -37.7912
74 237.389 20.02 10.2201
74 239.879 20.6867 9.71081
74 242.482 21.6908 13.4753
74 245.086 22.0952 13.1283
74 242.015 25.2833 11.0523
74 244.689 25.7552 10.6451
0 245.029 24.2335 14.1699
74 245.44 27.4921 12.5
74 248.16 28.2958 12.4751
74 250.765 29.0463 12.3576
74 248.943 30.0617 14.3766
74 252.02 31.928 11.9117
74 251.591 30.8313 14.3259
74 252.515 32.5567 16.3024
74 251.658 35.898 13.4653
74 217.855 -32.2726 17.1296
74 216.919 -28.9782 14.0679
74 216.134 -25.5751 11.1423
74 216.564 -24.9761 15.5008
74 217.669 -22.2689 15.0007
74 221.963 -23.8887 14.9142
74 221.137 -20.1762 16.6547
74 240.891 18.278 9.63461
74 241.789 19.3576 7.42738
74 242.483 21.1083 9.27144
74 246.898 20.6069 10.7749
74 245.843 23.2068 10.7656
74 250.309 22.801 12.2056
74 251.202 24.9673 10.8827
74 249.245 25.8005 12.5935
74 252.567 27.8444 10.4349
74 256.049 30.1086 12.189
74 257.307 32.9042 11.5598
74 256.829 31.84 14.0928
0 163.208 -22.6953 -34.1485
0 167.177 -19.3845 -35.0647
74 216.368 -29.6136 9.5833
74 219.978 -27.4867 11.2568
74 218.42 -26.1859 13.2744
74 222.191 -28.0025 13.5432
74 225.878 -25.7782 14.9046
74 225.422 -21.7792 16.5632
74 233.474 -24.9727 20.3421
74 233.341 -21.053 22.3449
74 237.089 -22.6505 22.1408
74 235.405 -21.5052 24.2233
74 204.667 21.2544 -27.0233
74 210.086 19.8522 -21.6332
74 210.909 21.5615 -19.6619
74 243.404 17.9796 5.49026
74 246.07 18.8634 8.90317
74 246.997 20.6248 6.98703
74 249.513 21.0118 10.3235
74 250.463 23.1462 8.98238
74 253.127 23.805 9.10975
74 253.997 30.5244 9.78356
74 257.795 28.8611 9.89229
74 259.257 31.5904 9.28591
74 214.446 -29.2064 7.5047
74 218.215 -31.0463 7.47209
74 213.669 -25.7904 4.72935
74 217.913 -26.9413 8.91861
74 221.752 -28.8913 9.1093
74 221.52 -24.7334 10.4777
74 223.723 -25.2949 12.7329
74 227.378 -23.0467 14.2184
74 229.468 -23.7342 16.0949
74 233.178 -25.703 16.0208
74 231.468 -24.3689 18.4375
74 235.278 -26.2441 18.4376
74 236.195 -24.4472 20.2786
74 237.733 -21.7206 19.6212
0 195.555 -6.56626 -21.6457
0 202.722 -7.24869 -17.6708
0 199.091 -4.31614 -20.0717
0 204.013 -4.41754 -18.2519
74 209.227 18.125 -23.6152
74 246.863 15.7305 4.73583
74 247.844 17.4827 6.59759
74 248.862 19.5445 5.2348
74 250.317 22.3844 4.68585
74 249.661 21.3672 7.11539
74 252.336 22.0107 7.1963
74 253.662 24.7279 6.59926
74 254.57 26.4785 8.46013
74 258.579 24.7082 8.39283
74 221.996 -33.0524 7.63273
74 216.775 -28.4463 0.249751
74 218.971 -28.9998 2.49718
74 217.475 -27.7234 4.56562
74 225.58 -30.8951 8.86383
74 225.396 -26.7002 10.6087
74 229.216 -28.6106 10.5268
74 227.499 -27.2955 12.4797
74 231.288 -29.2395 12.3625
74 232.271 -27.4601 14.1879
74 234.892 -26.9933 14.122
74 236.973 -27.6317 16.0129
74 237.908 -25.8401 17.8731
74 241.652 -23.7663 19.4826
74 242.261 -26.9135 22.3889
0 210.843 -11.3433 -10.9599
74 249.574 16.0916 4.25022
74 250.738 18.3876 3.40298
74 254.291 20.576 4.94302
74 217.011 -32.3828 -1.29541
74 215.215 -26.7552 -4.31905
74 222.858 -31.0097 2.61552
74 221.276 -29.6873 4.71041
74 223.505 -30.3217 6.94637
74 227.299 -32.1816 6.90692
74 227.043 -28.0983 8.19262
74 230.865 -30.0101 8.11707
74 230.667 -25.7887 9.89978
74 232.761 -26.4335 11.7232
74 236.532 -28.3816 11.6947
74 237.484 -26.5995 13.5107
74 240.105 -26.1489 13.3908
74 239.596 -27.1848 15.8586
74 242.249 -26.6938 15.6772
74 241.764 -27.6734 18.1768
74 243.325 -24.9825 17.4766
0 170.02 -1.59442 -54.1502
74 187.873 -2.97312 -41.5652
74 187.342 3.02099 -44.7294
74 185.298 4.99782 -45.0521
74 188.604 4.55059 -42.9158
74 259.065 20.5468 6.68715
74 203.145 -30.7871 -15.8954
74 209.331 -29.2032 -12.0371
74 213.432 -30.2979 -8.21527
74 215.413 -30.8952 -6.25854
74 216.979 -28.1646 -6.72793
74 220.24 -31.1182 -4.0508
74 218.676 -29.844 -1.9483
74 220.753 -30.4398 0.349819
74 226.861 -32.9585 2.61709
74 225.141 -31.6901 4.61392
74 228.956 -33.5481 4.48462
74 205.761 -24.2145 -19.1578
74 229.905 -31.772 6.27669
74 231.358 -28.9782 5.63756
74 232.297 -27.1799 7.46155
74 236.114 -29.0961 7.41508
74 234.463 -27.7482 9.83086
74 200.543 -14.5348 -27.357
74 203.505 -18.422 -22.3855
74 237.034 -27.3311 9.23141
74 239.171 -27.9199 11.5715
74 241.82 -27.4529 11.4513
74 245.013 -26.2771 15.2053
0 179.961 -6.97986 -49.6836
74 191.763 -10.9217 -38.5884
74 192.745 -9.39259 -36.5158
74 195.063 -9.99715 -34.3427
74 197.382 -10.5515 -32.2896
74 200.696 -13.4069 -29.905
74 241.572 -23.32 12.7623
74 244.225 -22.7811 12.5931
0 211.287 -9.93173 -20.3398
74 186.68 2.1286 -49.1872
74 188.021 -0.798071 -46.5528
74 190.635 -2.49362 -41.7928
74 187.383 3.81115 -47.3125
74 189.87 3.44064 -45.1442
74 191.505 1.25506 -44.7932
74 192.881 2.93279 -42.9671
0 225.861 0.129412 -16.534
0 249.933 3.39353 1.11832
0 255.28 4.00192 7.33763
0 249.317 13.0491 -4.93489
0 224.368 -41.4526 1.70533
74 208.494 -34.9281 -15.9428
74 209.373 -33.1028 -14.0737
74 208.54 -29.7668 -16.5672
74 211.14 -29.2497 -17.0425
74 210.933 -30.2835 -14.5575
74 213.04 -30.9288 -12.6554
74 215.642 -30.5099 -13.1225
74 215.072 -31.597 -10.6784
74 217.766 -31.1748 -10.7972
74 217.274 -32.2455 -8.37559
74 222.514 -31.8232 -1.82896
74 224.65 -32.4566 0.330464
74 228.578 -34.2799 0.165584
74 212.23 -26.6222 -17.4738
74 229.458 -32.5296 1.99529
74 232.155 -32.0153 1.86111
74 230.42 -30.7379 3.83254
74 202.702 -20.216 -24.3177
74 206.397 -22.082 -24.2413
74 207.147 -21.458 -19.8634
74 211.099 -23.2064 -20.1129
74 213.494 -23.7516 -18.0696
74 215.988 -24.2904 -16.1573
74 233.067 -30.2198 3.71515
74 235.687 -29.7958 3.13767
74 234.01 -28.4528 5.55358
0 244.289 -30.7831 11.7304
74 205.626 -18.6678 -27.0819
74 207.37 -20.3009 -22.3332
74 236.62 -28.0036 4.96757
74 239.304 -27.499 4.91139
74 238.744 -28.5818 7.34276
74 241.427 -28.1052 7.14665
74 240.867 -29.1856 9.54359
74 200.048 -14.1506 -34.2648
74 202.352 -14.8152 -32.1
74 204.607 -15.3148 -29.9154
74 208.753 -17.4296 -23.0755
74 241.209 -24.0397 8.5285
74 244.386 -26.9789 10.9197
74 246.988 -26.6423 10.524
74 196.55 -11.2487 -36.9026
74 199.209 -10.7386 -37.0972
74 194.317 -5.45651 -39.5894
74 200.581 -7.91567 -37.6331
74 195.721 -2.67526 -40.1244
74 199.577 -4.43426 -40.2475
0 221.565 -9.07383 -19.1904
74 188.437 0.0908661 -49.0436
74 190.996 0.472139 -49.2179
74 190.677 -0.433395 -46.7372
74 193.286 -0.029359 -47.0863
74 195.694 -0.520374 -44.928
74 198.218 -1.28029 -43.0777
74 194.065 1.68264 -45.1932
74 200.564 4.07373 -44.1803
0 225.775 5.66297 -24.2506
0 255.01 20.2517 -8.92242
0 234.733 -46.1283 10.5714
0 227.046 -40.973 1.37013
74 213.565 -29.8844 -15.0674
74 220.454 -30.7119 -10.944
74 219.991 -31.8643 -8.54199
74 222.635 -31.3979 -8.6249
74 222.09 -32.4744 -6.20818
74 224.247 -33.0981 -4.06225
74 228.207 -34.9837 -4.21747
74 227.747 -36.0637 -1.68239
74 229.113 -33.2299 -2.33633
74 214.752 -27.1159 -15.6225
74 217.145 -27.6776 -13.5841
74 219.746 -27.2197 -13.6772
74 228.427 -29.7707 -4.72944
74 230.542 -30.3882 -2.86951
74 229.993 -31.4734 -0.447796
74 231.449 -28.6161 -1.04213
74 235.33 -30.443 -1.04875
74 233.624 -29.145 1.29826
74 237.484 -30.9617 1.25254
74 209.125 -21.63 -24.6158
74 237.792 -25.9013 0.0946105
74 237.165 -26.9469 2.54656
74 239.886 -26.4518 2.47688
74 243.166 -29.3893 4.73578
74 205.073 -14.3873 -32.4972
74 208.277 -18.1649 -27.3619
74 242.919 -25.3141 6.61254
74 245.526 -24.8437 6.08654
74 245 -25.9295 8.50659
74 249.312 -27.1975 12.6553
74 201.541 -11.4138 -34.9278
74 204.197 -10.9117 -35.2533
74 206.503 -11.573 -33.1406
74 206.103 -12.6502 -30.7163
74 248.644 -23.9213 10.0537
74 250.874 -24.5565 12.1937
0 235.562 -16.682 -7.92346
74 192.754 -0.813888 -51.5119
74 190.094 -1.06383 -51.1154
74 193.546 0.855418 -49.6612
74 195.098 -1.31744 -49.4231
0 197.31 -1.62173 -45.3862
74 200.908 -0.891852 -43.1904
0 240.388 -11.6008 -6.93048
74 195.94 0.372716 -47.5141
74 198.269 0.0484637 -45.4021
74 200.918 0.355293 -45.6226
74 202.265 1.97369 -43.8446
74 181.873 13.9346 -68.1616
0 235.283 -0.783157 -17.2938
74 184.59 14.7261 -68.1256
0 256.773 -3.18134 1.52062
0 256.06 11.6568 -5.35946
0 268.053 16.0557 -0.391585
0 284.622 13.7589 16.603
0 241.418 -69.6627 22.8342
0 240.705 -54.8245 15.9542
74 226.101 -34.3677 -6.17986
74 221.538 -28.5625 -15.8218
74 223.59 -29.1811 -13.4828
74 224.353 -32.5897 -10.9417
74 225.919 -29.8405 -11.4203
74 225.371 -30.9607 -8.98694
74 228.066 -30.4601 -9.02564
74 227.503 -31.5077 -6.61315
74 230.186 -31.0073 -7.16044
74 231.115 -29.2904 -5.29717
74 233.192 -29.8216 -2.9075
74 236.849 -27.673 -1.70114
74 243.671 -28.3319 2.30458
74 244.656 -26.5909 4.2171
74 250.198 -30.1107 8.45655
74 211.324 -16.6135 -30.3269
74 249.326 -26.5933 5.98883
74 208.085 -12.7338 -35.2292
74 209.15 -11.0418 -33.4354
0 241.871 -19.1349 -5.85777
74 193.44 -4.46251 -53.3552
74 203.543 -6.51907 -40.4559
74 207.155 -9.35561 -37.9989
74 208.306 -7.65486 -36.2007
74 192.938 -0.0814587 -54.0907
74 195.316 -0.469408 -51.9506
74 196.885 -2.62478 -51.6821
74 197.689 -0.937149 -49.7426
74 199.185 -3.14212 -49.5247
74 204.897 -3.65343 -41.0197
74 207.338 -4.26299 -38.9778
74 199.98 -1.33414 -47.6598
74 202.584 -1.02053 -48.0117
74 204.909 -1.471 -45.8893
74 207.572 -3.08894 -41.361
0 216.566 -3.08798 -35.6165
74 203.436 0.779185 -46.1458
74 204.83 2.32194 -44.3577
0 244.694 -2.04662 -11.1638
0 253.152 0.102098 -7.76998
0 256.687 2.35221 -6.19597
0 258.835 6.95383 -4.86779
74 299.283 21.9134 16.096
74 237.267 -31.7703 -3.15157
74 244.102 -32.4467 0.526232
0 225.737 -15.7774 -25.3426
74 198.708 -4.02595 -54.0077
74 199.473 -2.2922 -52.0703
74 201.006 -4.50751 -51.8162
74 203.318 -4.92518 -49.638
0 245.84 -15.8241 -6.77401
74 201.784 -2.74564 -49.911
74 204.113 -3.2269 -47.7448
74 206.757 -2.83805 -48.0892
74 209.229 -3.40102 -46.0347
74 208.655 1.42063 -46.8063
0 255.83 0.581743 -8.10518
0 253.065 5.63565 -15.4866
0 257.891 10.7169 -14.4936
0 267.784 32.3054 -16.6516
0 246.688 -63.1698 14.4473
0 225.592 -32.3861 -20.3717
0 247.94 -33.0138 0.351902
0 250.956 -26.2908 -3.30042
0 241.024 -20.5545 -14.6567
74 200.04 -5.33392 -56.164
0 242.315 -17.7233 -15.2377
0 246.804 -18.8854 -10.9276
74 198.476 -3.28594 -56.6333
74 201.307 -3.70692 -54.3757
74 202.906 -5.90232 -54.066
74 205.106 -6.25274 -51.8176
0 225.651 -10.2439 -33.0592
0 227.461 -11.8856 -28.4139
0 241.362 -14.3112 -17.9738
0 243.606 -14.8922 -15.8188
0 243.172 -15.9529 -13.3285
0 245.85 -15.4732 -13.6637
0 248.095 -16.0543 -11.5087
74 203.605 -4.10716 -52.1728
74 205.96 -4.58829 -49.9658
74 208.505 -4.11644 -50.369
74 210.823 -4.56625 -48.1046
74 213.307 -5.13117 -45.9678
74 213.25 -6.39565 -43.529
0 240.408 -10.899 -20.7099
0 242.652 -11.48 -18.5549
0 242.219 -12.5407 -16.0646
0 244.897 -12.061 -16.3998
0 244.463 -13.1217 -13.9096
0 247.141 -12.6421 -14.2448
0 249.386 -13.2231 -12.0897
74 210.394 0.135887 -49.0874
74 213.036 -0.537486 -46.8595
0 241.699 -8.06781 -21.2909
0 243.943 -8.64885 -19.1359
0 246.188 -9.22989 -16.9808
0 248.432 -9.81093 -14.8258
0 250.676 -10.392 -12.6707
0 252.921 -10.973 -10.5157
0 255.165 -11.554 -8.36065
0 264.143 -13.8782 0.259546
0 263.709 -14.9389 2.7498
0 242.99 -5.23666 -21.872
0 247.045 -7.45942 -15.0716
0 249.723 -6.97978 -15.4068
0 249.289 -8.04046 -12.9166
0 251.967 -7.56081 -13.2518
0 251.534 -8.6215 -10.7615
0 254.212 -8.14185 -11.0967
0 251.014 -4.14862 -15.9879
0 242.893 -0.0540067 -22.6989
0 251.351 2.09471 -19.305
0 267.062 -1.97255 -4.21965
0 249.964 4.44622 -19.5508
0 252.208 3.86518 -17.3958
0 257.468 10.0071 -18.8931
0 240.147 -71.792 9.63586
0 242.729 -66.1297 8.47378
0 232.422 -39.3119 -13.0797
0 233.713 -36.4807 -13.6607
0 217.386 -22.7579 -34.7993
0 224.89 -17.197 -34.1415
0 240.601 -21.2643 -19.0562
0 242.845 -21.8453 -16.9011
0 223.503 -14.8455 -34.3873
0 239.647 -17.8521 -21.7923
0 239.214 -18.9128 -19.302
0 241.892 -18.4331 -19.6372
0 241.458 -19.4938 -17.147
0 244.136 -19.0142 -17.4822
0 246.38 -19.5952 -15.3271
0 248.625 -20.1762 -13.1721
0 250.869 -20.7573 -11.017
74 202.676 -4.94233 -56.5978
74 204.443 -6.94227 -56.1256
74 204.507 -8.03441 -53.6606
0 207.272 -6.30538 -54.699
74 209.117 -8.00888 -51.8075
0 222.983 -10.3726 -39.6137
0 231.96 -12.6968 -30.9935
0 240.938 -15.0209 -22.3733
0 240.504 -16.0816 -19.883
0 243.182 -15.602 -20.2182
0 242.749 -16.6627 -17.728
0 245.427 -16.183 -18.0632
0 244.993 -17.2437 -15.5729
0 247.671 -16.7641 -15.9081
0 247.238 -17.8247 -13.4179
0 249.916 -17.3451 -13.7531
0 249.482 -18.4058 -11.2628
0 252.16 -17.9261 -11.598
74 207.669 -5.89713 -52.3441
74 209.94 -6.28623 -49.9694
74 213.698 -3.44503 -51.0214
74 214.929 -6.52719 -48.2161
74 217.549 -7.23636 -46.0288
0 239.984 -11.6088 -25.1094
0 239.551 -12.6694 -22.6191
0 242.229 -12.1898 -22.9543
0 241.795 -13.2505 -20.4641
0 244.473 -12.7708 -20.7993
0 244.04 -13.8315 -18.309
0 246.718 -13.3519 -18.6442
0 246.284 -14.4125 -16.154
0 248.962 -13.9329 -16.4892
0 248.528 -14.9936 -13.9989
0 251.207 -14.5139 -14.3341
0 250.773 -15.5746 -11.8439
0 253.451 -15.095 -12.1791
74 213.398 -4.26273 -48.5001
0 216.153 -3.44687 -46.9057
74 217.419 -2.5535 -46.8305
0 234.108 -8.09517 -29.6653
0 241.275 -8.7776 -25.6904
0 240.842 -9.83828 -23.2002
0 243.52 -9.35864 -23.5354
0 243.086 -10.4193 -21.0451
0 245.764 -9.93967 -21.3803
0 245.33 -11.0004 -18.8901
0 248.009 -10.5207 -19.2253
0 247.575 -11.5814 -16.735
0 250.253 -11.1017 -17.0702
0 249.819 -12.1624 -14.58
0 252.497 -11.6828 -14.9152
0 252.064 -12.7435 -12.4249
0 254.742 -12.2638 -12.7601
0 256.986 -12.8449 -10.6051
0 259.231 -13.4259 -8.45002
0 261.475 -14.0069 -6.29497
0 242.132 -7.00713 -23.7812
0 244.81 -6.52749 -24.1164
0 244.377 -7.58817 -21.6261
0 247.055 -7.10852 -21.9613
0 246.621 -8.16921 -19.4711
0 249.299 -7.68956 -19.8063
0 248.866 -8.75024 -17.316
0 251.544 -8.2706 -17.6512
0 251.11 -9.33128 -15.161
0 253.788 -8.85164 -15.4962
0 253.355 -9.91232 -13.0059
0 256.033 -9.43267 -13.3412
0 255.599 -10.4934 -10.8509
0 258.277 -10.0137 -11.1861
0 257.843 -11.0744 -8.69585
0 260.521 -10.5947 -9.03105
0 262.766 -11.1758 -6.876
0 250.59 -4.85841 -20.3873
0 250.157 -5.91909 -17.8971
0 252.835 -5.43945 -18.2323
0 252.401 -6.50013 -15.742
0 255.079 -6.02048 -16.0772
0 254.645 -7.08117 -13.587
0 257.323 -6.60152 -13.9222
0 256.89 -7.6622 -11.4319
0 253.172 0.803892 -21.5494
0 254.029 2.57436 -19.6402
0 271.802 8.64227 -10.9433
0 259.192 13.899 -21.9643
0 272.139 14.8856 -14.2604
0 237.999 -76.3936 8.30768
0 246.794 -68.0016 8.38442
0 227.231 -22.9607 -31.1596
0 245.62 -26.5483 -16.4094
0 242.422 -22.5551 -21.3006
0 241.988 -23.6158 -18.8103
0 244.666 -23.1361 -19.1455
0 244.232 -24.1968 -16.6553
0 246.91 -23.7172 -16.9905
0 249.155 -24.2982 -14.8354
0 251.399 -24.8792 -12.6804
74 203.772 -7.92975 -60.5076
74 205.062 -10.9184 -57.8129
0 227.568 -16.7174 -34.4767
0 236.979 -17.9808 -28.3468
0 239.224 -18.5619 -26.1917
0 241.468 -19.1429 -24.0367
0 241.034 -20.2036 -21.5464
0 243.712 -19.7239 -21.8816
0 243.279 -20.7846 -19.3914
0 245.957 -20.305 -19.7266
0 245.523 -21.3657 -17.2363
0 248.201 -20.886 -17.5715
0 247.768 -21.9467 -15.0813
0 250.446 -21.4671 -15.4165
0 250.012 -22.5277 -12.9262
0 252.69 -22.0481 -13.2614
74 204.595 -6.21441 -58.7146
74 207.038 -6.58244 -56.531
74 208.522 -8.83949 -56.3379
74 210.808 -9.37741 -54.154
74 213.14 -9.92199 -51.9743
0 229.292 -12.8255 -37.548
0 231.103 -14.4673 -32.9027
0 233.348 -15.0483 -30.7476
0 238.27 -15.1497 -28.9278
0 237.836 -16.2104 -26.4376
0 240.514 -15.7307 -26.7728
0 240.081 -16.7914 -24.2825
0 242.759 -16.3118 -24.6177
0 242.325 -17.3724 -22.1275
0 245.003 -16.8928 -22.4627
0 244.57 -17.9535 -19.9724
0 247.248 -17.4738 -20.3076
0 246.814 -18.5345 -17.8174
0 249.492 -18.0549 -18.1526
0 249.059 -19.1156 -15.6623
0 251.737 -18.6359 -15.9975
0 251.303 -19.6966 -13.5073
0 253.981 -19.2169 -13.8425
74 209.271 -7.09117 -54.376
74 211.699 -7.71261 -52.2689
74 214.024 -8.23829 -50.0824
74 216.611 -7.92082 -50.506
74 216.444 -8.78365 -47.945
0 234.638 -12.2171 -31.3287
0 241.805 -12.8996 -27.3538
0 241.372 -13.9603 -24.8635
0 244.05 -13.4806 -25.1987
0 243.616 -14.5413 -22.7085
0 246.294 -14.0616 -23.0437
0 245.86 -15.1223 -20.5534
0 248.539 -14.6427 -20.8886
0 248.105 -15.7034 -18.3984
0 250.783 -15.2237 -18.7336
0 250.349 -16.2844 -16.2433
0 253.027 -15.8048 -16.5785
0 252.594 -16.8654 -14.0883
0 255.272 -16.3858 -14.4235
0 254.838 -17.4465 -11.9332
0 257.516 -16.9668 -12.2684
0 222.896 -4.83909 -47.3303
0 224.707 -6.48081 -42.685
0 236.363 -8.32531 -34.4
0 242.662 -11.1291 -25.4446
0 245.341 -10.6495 -25.7798
0 244.907 -11.7101 -23.2895
0 247.585 -11.2305 -23.6247
0 247.151 -12.2912 -21.1345
0 249.829 -11.8115 -21.4697
0 249.396 -12.8722 -18.9794
0 252.074 -12.3926 -19.3146
0 251.64 -13.4533 -16.8244
0 254.318 -12.9736 -17.1596
0 253.885 -14.0343 -14.6693
0 256.563 -13.5546 -15.0045
0 256.129 -14.6153 -12.5143
0 258.807 -14.1357 -12.8495
0 258.373 -15.1964 -10.3592
0 261.052 -14.7167 -10.6944
0 260.618 -15.7774 -8.20418
0 263.296 -15.2978 -8.53938
0 243.953 -8.29795 -26.0256
0 246.198 -8.87899 -23.8706
0 248.876 -8.39935 -24.2058
0 248.442 -9.46003 -21.7155
0 251.12 -8.98038 -22.0507
0 250.687 -10.0411 -19.5605
0 253.365 -9.56142 -19.8957
0 252.931 -10.6221 -17.4054
0 255.609 -10.1425 -17.7406
0 255.175 -11.2031 -15.2504
0 257.853 -10.7235 -15.5856
0 257.42 -11.7842 -13.0953
0 260.098 -11.3045 -13.4305
0 259.664 -12.3652 -10.9403
0 262.342 -11.8856 -11.2755
0 261.909 -12.9463 -8.78522
0 264.587 -12.4666 -9.12042
0 247.489 -6.04784 -24.4516
0 249.733 -6.62888 -22.2965
0 252.411 -6.14923 -22.6317
0 251.977 -7.20992 -20.1415
0 254.655 -6.73027 -20.4767
0 254.222 -7.79095 -17.9864
0 256.9 -7.31131 -18.3217
0 256.466 -8.37199 -15.8314
0 259.144 -7.89234 -16.1666
0 258.711 -8.95303 -13.6764
0 261.389 -8.47338 -14.0116
0 260.955 -9.53406 -11.5213
0 263.633 -9.05442 -11.8565
0 265.878 -9.63546 -9.70145
0 258.191 -4.48016 -18.9027
0 262.68 -5.64223 -14.5926
0 260.339 0.121463 -17.5745
0 276.05 -3.9458 -2.48917
0 266.118 1.79054 -13.8454
0 260.156 10.8377 -26.118
0 247.441 -27.8391 -18.6539
0 249.685 -28.4202 -16.4988
0 241.998 -23.2649 -25.7
0 241.564 -24.3256 -23.2098
0 244.243 -23.8459 -23.545
0 243.809 -24.9066 -21.0547
0 246.487 -24.427 -21.3899
0 246.053 -25.4876 -18.8997
0 248.731 -25.008 -19.2349
0 248.298 -26.0687 -16.7446
0 250.976 -25.589 -17.0798
0 250.542 -26.6497 -14.5896
0 253.22 -26.1701 -14.9248
74 205.517 -9.19973 -62.8082
74 206.84 -12.2163 -60.1797
0 241.044 -19.8527 -28.4361
0 240.611 -20.9134 -25.9459
0 243.289 -20.4337 -26.2811
0 242.855 -21.4944 -23.7908
0 245.533 -21.0148 -24.126
0 245.1 -22.0755 -21.6358
0 247.778 -21.5958 -21.971
0 247.344 -22.6565 -19.4807
0 250.022 -22.1768 -19.8159
0 249.589 -23.2375 -17.3257
0 252.267 -22.7579 -17.6609
0 251.833 -23.8186 -15.1706
0 254.511 -23.3389 -15.5058
74 206.408 -7.54262 -60.9941
74 208.792 -8.0075 -58.8442
74 210.281 -10.2254 -58.6099
74 209.956 -11.0762 -56.0561
74 212.592 -10.7911 -56.4321
74 214.894 -11.3018 -54.2765
74 217.226 -11.8445 -52.1053
74 219.553 -12.4012 -49.9509
0 222.135 -11.7922 -48.4126
0 235.168 -16.3391 -32.9921
0 239.657 -17.5012 -28.682
0 242.335 -17.0215 -29.0172
0 241.902 -18.0822 -26.5269
0 244.58 -17.6026 -26.8621
0 244.146 -18.6633 -24.3719
0 246.824 -18.1836 -24.7071
0 246.391 -19.2443 -22.2168
0 249.069 -18.7647 -22.552
0 248.635 -19.8253 -20.0618
0 251.313 -19.3457 -20.397
0 250.879 -20.4064 -17.9067
0 253.557 -19.9267 -18.2419
0 253.124 -20.9874 -15.7517
0 255.802 -20.5078 -16.0869
0 255.368 -21.5685 -13.5966
0 258.046 -21.0888 -13.9318
74 213.455 -9.05689 -54.5401
74 215.781 -9.59666 -52.3725
74 218.113 -10.1393 -50.1794
74 220.415 -10.657 -48.0003
74 223.176 -10.3763 -48.3161
0 230.16 -10.7042 -42.5285
0 236.893 -12.4473 -36.0633
0 236.459 -13.508 -33.5731
0 240.948 -14.67 -29.263
0 243.626 -14.1904 -29.5982
0 243.192 -15.2511 -27.108
0 245.871 -14.7714 -27.4432
0 245.437 -15.8321 -24.9529
0 248.115 -15.3525 -25.2881
0 247.681 -16.4132 -22.7979
0 250.359 -15.9335 -23.1331
0 249.926 -16.9942 -20.6428
0 252.604 -16.5145 -20.978
0 252.17 -17.5752 -18.4878
0 254.848 -17.0956 -18.823
0 254.415 -18.1563 -16.3327
0 257.093 -17.6766 -16.6679
0 256.659 -18.7373 -14.1777
0 259.337 -18.2577 -14.5129
0 258.903 -19.3183 -12.0226
0 224.283 -7.19059 -47.0844
0 238.184 -9.61613 -36.6444
0 244.483 -12.4199 -27.689
0 247.161 -11.9403 -28.0242
0 246.728 -13.001 -25.5339
0 249.406 -12.5213 -25.8691
0 248.972 -13.582 -23.3789
0 251.65 -13.1024 -23.7141
0 251.217 -14.163 -21.2238
0 253.895 -13.6834 -21.559
0 253.461 -14.7441 -19.0688
0 256.139 -14.2644 -19.404
0 255.705 -15.3251 -16.9137
0 258.384 -14.8455 -17.2489
0 257.95 -15.9062 -14.7587
0 260.628 -15.4265 -15.0939
0 260.194 -16.4872 -12.6036
0 262.872 -16.0075 -12.9388
0 265.117 -16.5886 -10.7838
0 223.764 -2.71772 -52.3108
0 245.774 -9.58878 -28.27
0 248.452 -9.10913 -28.6052
0 248.019 -10.1698 -26.115
0 250.697 -9.69017 -26.4502
0 250.263 -10.7509 -23.9599
0 252.941 -10.2712 -24.2951
0 252.507 -11.3319 -21.8049
0 255.185 -10.8522 -22.1401
0 254.752 -11.9129 -19.6498
0 257.43 -11.4333 -19.985
0 256.996 -12.494 -17.4948
0 259.674 -12.0143 -17.83
0 259.241 -13.075 -15.3397
0 261.919 -12.5954 -15.6749
0 261.485 -13.656 -13.1847
0 264.163 -13.1764 -13.5199
0 263.73 -14.2371 -11.0296
0 266.408 -13.7574 -11.3648
0 265.974 -14.8181 -8.87458
0 226.865 -1.52829 -48.2465
0 249.743 -6.27798 -29.1863
0 249.309 -7.33866 -26.696
0 251.987 -6.85902 -27.0312
0 251.554 -7.9197 -24.541
0 254.232 -7.44006 -24.8762
0 253.798 -8.50074 -22.3859
0 256.476 -8.02109 -22.7211
0 256.043 -9.08178 -20.2309
0 258.721 -8.60213 -20.5661
0 258.287 -9.66281 -18.0758
0 260.965 -9.18317 -18.411
0 260.532 -10.2438 -15.9208
0 263.21 -9.7642 -16.256
0 262.776 -10.8249 -13.7657
0 265.454 -10.3452 -14.1009
0 265.02 -11.4059 -11.6107
0 267.698 -10.9263 -11.9459
0 267.265 -11.987 -9.45562
0 257.767 -5.18994 -23.3022
0 257.334 -6.25062 -20.8119
0 259.578 -6.83166 -18.6569
0 261.822 -7.4127 -16.5018
0 264.5 -6.93305 -16.837
0 264.067 -7.99374 -14.3468
0 266.745 -7.51409 -14.682
0 266.311 -8.57477 -12.1917
0 268.556 -9.15581 -10.0367
0 272.091 -6.9057 -8.46264
0 233.416 7.44481 -50.3248
0 271.137 -3.49351 -11.1987
0 273.815 -3.01386 -11.5339
0 282.793 -5.33801 -2.91373
0 261.64 3.30351 -25.0453
0 268.373 1.5604 -18.5801
0 272.428 -0.662358 -11.7798
0 262.93 6.13466 -25.6263
0 252.979 -37.5961 -10.7808
0 260.05 -33.0958 -7.63278
0 230.352 -21.0695 -40.8748
0 243.385 -25.6164 -25.4542
0 246.063 -25.1367 -25.7894
0 245.63 -26.1974 -23.2992
0 248.308 -25.7178 -23.6344
0 247.874 -26.7785 -21.1441
0 250.552 -26.2988 -21.4793
0 250.119 -27.3595 -18.9891
0 252.797 -26.8799 -19.3243
0 252.363 -27.9405 -16.834
0 255.041 -27.4609 -17.1692
0 264.019 -29.785 -8.54902
74 209.742 -11.1099 -63.0205
74 212.097 -11.59 -60.8799
0 231.643 -18.2383 -41.4558
0 242.865 -21.1435 -30.6805
0 242.432 -22.2042 -28.1903
0 245.11 -21.7246 -28.5255
0 244.676 -22.7852 -26.0352
0 247.354 -22.3056 -26.3704
0 246.921 -23.3663 -23.8802
0 249.599 -22.8866 -24.2154
0 249.165 -23.9473 -21.7251
0 251.843 -23.4677 -22.0603
0 251.409 -24.5284 -19.5701
0 254.087 -24.0487 -19.9053
0 253.654 -25.1094 -17.415
0 256.332 -24.6297 -17.7503
0 255.898 -25.6904 -15.26
74 208.189 -8.95398 -63.3088
74 210.583 -9.37664 -61.162
74 211.759 -12.4703 -58.3343
74 214.391 -12.1133 -58.6986
74 215.225 -10.4151 -56.8192
74 216.704 -12.6753 -56.5469
74 219.03 -13.2031 -54.3512
74 221.353 -13.7633 -52.179
74 223.686 -14.3534 -50.0862
0 230.256 -15.8868 -41.7016
0 239.667 -17.1503 -35.5717
0 244.156 -18.3124 -31.2616
0 243.723 -19.3731 -28.7713
0 246.401 -18.8934 -29.1065
0 245.967 -19.9541 -26.6163
0 248.645 -19.4744 -26.9515
0 248.211 -20.5351 -24.4612
0 250.889 -20.0555 -24.7964
0 250.456 -21.1162 -22.3062
0 253.134 -20.6365 -22.6414
0 252.7 -21.6972 -20.1511
0 255.378 -21.2176 -20.4863
0 254.945 -22.2782 -17.9961
0 257.623 -21.7986 -18.3313
0 257.189 -22.8593 -15.841
74 217.558 -10.9772 -54.6103
74 219.88 -11.5225 -52.4382
74 222.217 -12.0977 -50.2305
74 224.63 -12.6621 -48.094
0 233.791 -13.6367 -40.1276
0 240.958 -14.3191 -36.1527
0 245.013 -16.5419 -29.3524
0 247.691 -16.0623 -29.6876
0 247.258 -17.1229 -27.1973
0 249.936 -16.6433 -27.5325
0 249.502 -17.704 -25.0423
0 252.18 -17.2243 -25.3775
0 251.747 -18.285 -22.8872
0 254.425 -17.8054 -23.2224
0 253.991 -18.8661 -20.7322
0 256.669 -18.3864 -21.0674
0 256.236 -19.4471 -18.5771
0 258.914 -18.9674 -18.9123
0 258.48 -20.0281 -16.4221
0 261.158 -19.5485 -16.7573
0 246.304 -13.7108 -29.9334
0 248.982 -13.2311 -30.2686
0 248.549 -14.2918 -27.7784
0 251.227 -13.8121 -28.1136
0 250.793 -14.8728 -25.6233
0 253.471 -14.3932 -25.9585
0 253.037 -15.4539 -23.4683
0 255.716 -14.9742 -23.8035
0 255.282 -16.0349 -21.3132
0 257.96 -15.5553 -21.6484
0 257.526 -16.6159 -19.1582
0 260.204 -16.1363 -19.4934
0 259.771 -17.197 -17.0031
0 262.449 -16.7173 -17.3383
0 262.015 -17.778 -14.8481
0 264.693 -17.2984 -15.1833
0 264.26 -18.359 -12.693
0 266.938 -17.8794 -13.0282
0 247.595 -10.8796 -30.5144
0 250.273 -10.4 -30.8496
0 249.839 -11.4606 -28.3594
0 252.518 -10.981 -28.6946
0 252.084 -12.0417 -26.2043
0 254.762 -11.562 -26.5395
0 254.328 -12.6227 -24.0493
0 257.006 -12.1431 -24.3845
0 256.573 -13.2037 -21.8942
0 259.251 -12.7241 -22.2294
0 258.817 -13.7848 -19.7392
0 261.495 -13.3051 -20.0744
0 261.062 -14.3658 -17.5841
0 263.74 -13.8862 -17.9193
0 263.306 -14.9469 -15.4291
0 265.984 -14.4672 -15.7643
0 265.55 -15.5279 -13.274
0 268.228 -15.0483 -13.6092
0 267.795 -16.1089 -11.119
0 251.13 -8.62949 -28.9404
0 253.375 -9.21052 -26.7854
0 256.053 -8.73088 -27.1206
0 255.619 -9.79156 -24.6303
0 258.297 -9.31192 -24.9655
0 257.864 -10.3726 -22.4753
0 260.542 -9.89295 -22.8105
0 260.108 -10.9536 -20.3202
0 262.786 -10.474 -20.6554
0 262.352 -11.5347 -18.1652
0 265.03 -11.055 -18.5004
0 264.597 -12.1157 -16.0101
0 267.275 -11.6361 -16.3453
0 266.841 -12.6967 -13.8551
0 254.666 -6.37937 -27.3664
0 257.344 -5.89973 -27.7016
0 256.91 -6.96041 -25.2114
0 259.588 -6.48076 -25.5466
0 259.154 -7.54145 -23.0563
0 261.399 -8.12248 -20.9013
0 264.077 -7.64284 -21.2365
0 263.643 -8.70352 -18.7462
0 265.888 -9.28456 -16.5912
0 268.132 -9.8656 -14.4361
0 270.377 -10.4466 -12.2811
0 264.934 -5.87237 -19.3273
0 278.834 -8.29791 -8.88721
0 250.948 2.08672 -37.4839
0 278.218 1.35762 -14.9404
0 274.586 4.29016 -17.3413
0 279.509 4.18877 -15.5215
0 282.09 9.85107 -16.6835
0 278.459 12.7836 -19.0844
0 280.087 21.8581 -22.9826
0 251.978 -55.9752 -7.71916
0 256.091 -36.0557 -13.6063
0 258.336 -36.6368 -11.4512
0 247.884 -26.4276 -28.0338
0 250.129 -27.0086 -25.8788
0 249.695 -28.0693 -23.3885
0 252.373 -27.5896 -23.7237
0 251.939 -28.6503 -21.2335
0 254.618 -28.1707 -21.5687
0 254.184 -29.2314 -19.0784
0 256.862 -28.7517 -19.4136
0 256.428 -29.8124 -16.9234
74 213.916 -12.9203 -63.1227
74 216.227 -13.4673 -60.9901
0 246.931 -23.0154 -30.7699
0 246.497 -24.0761 -28.2797
0 249.175 -23.5964 -28.6149
0 248.741 -24.6571 -26.1246
0 251.419 -24.1775 -26.4598
0 250.986 -25.2381 -23.9696
0 253.664 -24.7585 -24.3048
0 253.23 -25.8192 -21.8145
0 255.908 -25.3395 -22.1497
0 255.475 -26.4002 -19.6595
0 258.153 -25.9206 -19.9947
0 257.719 -26.9813 -17.5044
0 260.397 -26.5016 -17.8396
74 212.342 -10.7753 -63.4656
74 214.706 -11.2381 -61.2408
74 217.047 -11.7834 -59.0688
74 218.513 -14.0046 -58.794
74 219.345 -12.326 -56.8853
74 220.824 -14.564 -56.6386
74 221.663 -12.8917 -54.7221
74 223.131 -15.1473 -54.4727
74 225.483 -15.7026 -52.3076
74 227.834 -16.2281 -50.1079
74 228.928 -14.7319 -48.0647
0 245.543 -20.6639 -31.0157
0 248.221 -20.1842 -31.3509
0 247.788 -21.2449 -28.8607
0 250.466 -20.7653 -29.1959
0 250.032 -21.8259 -26.7056
0 252.71 -21.3463 -27.0408
0 252.277 -22.407 -24.5506
0 254.955 -21.9273 -24.8858
0 254.521 -22.988 -22.3955
0 257.199 -22.5084 -22.7308
0 256.766 -23.5691 -20.2405
0 259.444 -23.0894 -20.5757
0 259.01 -24.1501 -18.0855
0 261.688 -23.6705 -18.4207
0 275.155 -27.1567 -5.49036
74 223.975 -13.4374 -52.5484
74 226.319 -14.009 -50.4082
74 232.74 -11.5505 -49.2712
0 235.612 -14.9275 -42.372
0 249.079 -18.4138 -29.4417
0 251.757 -17.9341 -29.7769