ITEM: TIME
40.0
ITEM: TIMESTEP
0
ITEM: NUMBER OF ATOMS
1128
ITEM: BOX BOUNDS pp pp pp
-300.694 300.694
-300.694 300.694
-300.694 300.694
ITEM: ATOMS type x y z
74 82.9057 47.4185 143.231
74 61.4794 74.2042 45.7076
74 105.938 102.476 57.3375
0 94.5865 60.3621 71.3812
0 70.9621 42.7795 63.5034
0 68.5693 36.122 63.2803
74 96.1467 72.0155 41.0838
0 97.5288 47.8568 76.1591
0 117.293 71.1507 67.2852
74 49.4353 6.88649 62.2538
74 51.5686 9.06755 61.5045
0 71.3058 36.3653 49.1255
74 63.602 59.0142 4.12703
0 118.573 59.7743 78.6627
0 117.507 70.6345 57.9387
74 103.693 79.6021 31.9126
0 2.72261 -3.35047 16.2489
74 50.6968 7.06982 59.7468
74 54.3355 8.54861 61.9454
0 73.7255 43.4991 34.851
74 77.7211 41.7457 44.1154
74 78.5048 44.5319 40.8169
74 62.8985 56.9769 2.51118
74 64.2228 56.5134 5.05427
74 81.0084 49.4885 36.9612
74 66.1357 59.7406 -0.630595
74 64.8012 59.4514 1.67894
74 67.6633 58.2457 7.20392
74 81.5998 52.4101 33.8302
74 62.9879 63.1237 -6.70611
74 61.5206 62.8292 -4.42074
74 85.392 54.037 35.5583
74 110.608 51.3434 71.9079
0 -1.30596 -8.40287 8.12772
0 0.815334 -6.13475 7.51503
0 -1.22163 -3.02102 3.81247
0 6.69365 -3.20365 14.1877
74 63.3339 -4.05117 89.1
74 54.9826 4.77645 58.9007
74 53.9221 4.55628 61.3904
0 61.296 34.7561 24.8653
0 60.0348 34.3764 27.2694
74 81.1635 44.2748 41.3167
74 64.779 54.8742 1.04732
74 66.2013 54.5054 3.56479
74 70.1544 53.8572 6.80633
74 80.0795 47.5647 35.1706
74 83.6641 47.6669 33.0941
74 68.0316 57.5735 -2.03826
74 64.1586 57.3523 0.127353
74 85.8773 49.8218 32.3605
74 65.7186 61.4043 -10.6708
74 63.3578 60.5204 -5.80815
74 67.4953 60.0642 -2.95356
74 84.3747 52.2804 33.7098
74 69.2531 63.2323 -8.58444
74 89.9096 55.9919 35.2127
74 66.5942 -6.81741 90.4077
74 57.932 2.02722 60.1709
74 56.7479 1.66303 62.5144
74 59.469 1.47281 62.8818
74 58.346 0.935116 65.223
74 57.1908 7.82765 53.0239
74 55.9626 7.4515 55.4441
0 72.024 27.9663 45.0498
0 68.734 42.9326 15.4721
0 75.2008 43.3627 23.1004
74 67.6015 49.5859 5.78282
74 82.8458 42.0637 39.834
74 70.6653 52.3665 2.45906
74 69.3669 52.0686 4.8793
74 84.844 44.478 39.1368
74 88.5609 44.3649 37.1681
74 68.6731 55.1166 -1.19935
74 86.3931 47.3435 33.3611
74 87.9577 46.7512 36.0892
74 90.6887 46.5868 36.5626
74 63.7274 58.9559 -9.95353
74 67.8429 58.3249 -7.01527
74 71.8932 57.8375 -4.23687
74 87.429 49.2004 35.0628
74 89.0618 48.6422 37.6851
74 69.8567 60.7522 -7.64187
74 89.1944 52.4927 29.4519
74 90.7784 51.9589 32.2118
74 91.3912 54.7415 28.8112
74 119.365 48.7694 76.5563
0 18.2055 -1.25458 12.1996
74 42.3938 4.35486 28.7445
74 43.3032 6.24404 30.5857
74 47.3532 5.40986 33.6261
74 48.3864 7.07031 35.7428
74 61.2965 -0.764252 61.3975
74 49.7557 6.7711 38.2586
74 55.0181 5.14989 43.8749
74 60.4358 2.76804 55.4518
74 59.1497 2.35298 57.796
74 56.0157 6.9876 45.7338
74 57.3914 6.43107 48.6068
74 58.5916 5.9122 51.5781
0 73.0137 23.9566 41.8099
0 75.8078 29.1055 37.8375
0 81.4989 33.0291 39.3591
0 73.6679 38.5935 24.6686
0 77.8262 37.7479 27.7585
74 87.1421 39.9038 38.789
74 69.9227 50.241 0.955525
74 71.2931 49.8633 3.47185
74 87.7928 42.6173 35.3461
74 67.3501 55.0671 -12.9355
74 69.1358 53.4277 -5.30209
74 71.994 52.6493 0.050124
74 64.2249 57.5304 -14.3396
74 70.8553 56.9323 -10.849
74 67.0189 56.4355 -8.76475
74 68.5189 55.925 -6.00684
74 69.9627 55.4112 -3.60123
74 119.816 47.3287 72.3677
74 123.295 48.9469 74.4691
0 52.8008 -26.7227 86.7577
74 78.6875 -27.6859 115.54
74 37.6668 1.82732 19.9496
74 41.9911 0.138761 28.0334
74 42.5617 2.89336 24.6475
74 45.5516 1.61186 30.0197
74 46.9978 0.9605 32.81
0 44.1838 6.32376 23.8997
74 43.7319 4.65085 26.326
74 47.7566 3.80844 29.4406
74 49.1983 3.23152 32.1809
74 50.1266 5.08432 34.0402
74 53.3286 1.32991 40.2981
74 64.1591 -3.57655 62.8795
74 63.1076 -3.87173 65.3043
74 46.1985 9.72681 22.6867
74 51.5057 4.52653 36.7898
74 55.5821 3.56875 39.7574
74 54.1698 3.23506 42.055
74 56.4576 5.43146 41.6136
74 63.163 2.40733 55.7917
74 62.4939 -0.430793 58.9987
74 57.6835 4.94629 44.5685
74 59.0202 4.36261 47.4154
74 60.1092 6.10185 49.1951
74 61.6372 3.13343 53.1147
0 72.2566 15.694 49.4848
0 56.8087 26.3067 10.7573
0 80.4516 32.1331 32.4167
0 71.1722 38.3103 14.9792
0 82.7602 33.4088 36.955
0 85.4699 33.1759 37.2979
0 84.2087 32.7961 39.702
74 70.2897 48.7056 -3.18273
74 70.439 47.7697 1.90519
0 109.216 32.628 68.4237
74 70.583 52.5886 -11.5912
74 72.0988 51.9737 -8.9367
74 70.8854 51.4955 -6.53176
74 72.3122 51.1235 -3.728
74 73.7679 50.7082 -1.25071
74 69.8508 55.9517 -17.6771
74 70.3371 53.885 -7.75629
74 73.3354 57.7247 -15.6095
74 37.3858 -2.51893 18.9866
74 40.3389 1.40175 20.3419
74 40.1305 2.61103 15.193
74 38.9248 2.20938 17.6006
74 43.0731 1.36963 20.6622
74 66.4112 -6.74084 66.6261
74 40.6458 5.47225 12.0457
74 44.0493 3.35265 22.4022
74 46.8976 1.96363 27.5754
74 49.5802 1.73716 27.9161
74 67.4258 -6.26308 64.1719
0 39.6511 9.15426 10.5077
74 45.7087 6.42417 16.6347
74 44.4807 6.0507 18.9512
74 50.5297 3.56122 29.7969
74 53.2231 3.3998 30.1804
74 51.9185 2.98037 32.551
74 54.1175 5.24347 32.0673
74 53.2972 2.37406 35.3201
74 56.0279 2.11605 35.6872
74 54.6578 1.72428 37.9965
74 56.9587 3.95262 37.4959
74 65.1788 -2.15631 55.274
74 66.5535 -2.86138 58.0781
74 65.3445 -3.22702 60.4726
74 49.1786 8.0325 18.6251
74 48.0865 7.72371 21.0321
74 50.0334 9.84784 20.5441
74 48.8617 9.47596 22.9831
74 57.8459 5.79657 39.3421
74 59.5515 2.82426 43.2038
74 60.3749 4.6773 45.108
74 62.0997 1.52442 48.7948
74 51.1961 10.3491 18.0227
74 52.786 9.6598 20.7615
0 66.8824 4.87996 48.083
74 65.7853 3.27887 50.9722
74 54.3022 14.4284 19.3409
74 56.4335 11.447 23.0593
74 57.3171 13.1981 24.9725
74 52.2831 17.5781 15.9404
0 61.1727 12.7125 32.7798
0 58.7613 17.8112 18.7751
0 61.7426 21.9676 19.9538
0 65.9009 21.122 23.0437
0 73.3306 17.0662 41.9297
0 71.1064 21.1723 33.076
0 75.9375 23.2075 32.8062
0 77.5732 21.6024 40.7043
0 79.5073 24.8629 34.9405
0 80.9558 24.2502 37.6875
0 68.5921 32.6452 9.60497
0 73.1248 29.8147 22.997
0 77.4703 27.9767 31.2379
0 78.9188 27.364 33.9849
0 82.3014 30.0118 30.9681
0 81.5257 33.5053 24.8615
0 84.6099 31.2875 35.5065
74 70.8903 46.2659 -2.20466
74 68.048 52.0829 -21.1544
74 69.5205 51.5828 -18.3397
74 71.0085 51.0785 -15.6508
74 71.2134 50.1023 -10.6731
74 72.8239 49.4788 -7.93157
74 74.234 49.015 -5.27532
74 74.44 48.1714 -0.246323
74 66.4488 54.0215 -19.8073
74 67.8733 53.4879 -16.982
74 74.5947 52.8964 -13.625
74 73.9181 55.3201 -14.5431
74 30.2101 -5.0901 9.91505
74 32.2626 -2.66446 9.26071
74 31.5916 -5.34087 12.386
74 35.0711 -3.93204 14.6845
74 37.1755 -1.63028 14.0065
74 36.4862 -4.41574 17.1073
74 37.7857 1.32027 10.8179
74 39.2827 0.654727 13.5568
74 38.7143 -2.17796 16.6654
74 38.275 4.14404 7.71005
74 43.3975 -0.248315 16.3193
74 42.257 -0.560925 18.7636
74 41.8151 5.79006 9.68417
74 44.2619 1.72406 18.1007
74 71.6224 -8.58514 64.0857
74 70.3781 -8.93374 66.5556
74 44.8315 4.52083 14.8076
74 48.3278 6.05989 16.9787
74 47.9407 3.25806 20.0276
74 69.8838 -5.61133 59.2956
74 68.6191 -5.93264 61.7399
74 73.708 -6.32812 63.3245
74 72.5366 -6.72101 65.8351
74 46.0182 10.3573 8.6189
74 45.2859 7.427 11.6249
74 46.8833 6.81342 14.2245
74 52.8918 4.28939 24.9442
74 54.4229 3.74558 27.7705
74 55.924 3.13942 30.5622
74 58.0568 5.38897 30.037
74 57.343 2.5285 33.3223
74 59.4894 4.79197 32.8804
74 58.642 1.98401 36.2801
74 60.895 4.19882 35.757
74 60.0729 1.3477 38.9866
74 62.3401 3.56259 38.5241
74 61.455 0.7191 41.8048
74 63.6517 2.97787 41.3512
74 62.744 0.150088 44.6256
74 64.9734 2.35931 44.1897
74 64.0793 -0.496288 47.4013
74 65.4945 -1.14236 50.1847
74 67.8587 -2.44132 55.6846
74 70.1757 -0.196732 55.2494
74 47.4034 9.75921 11.0619
74 49.5925 11.949 10.7496
74 51.0201 11.2553 13.1521
74 50.3541 8.41901 16.2028
74 54.9494 6.64011 24.404
74 56.5136 6.03632 27.2048
74 63.0821 6.57089 35.252
74 67.6207 1.15456 49.6184
74 68.8697 0.549204 52.4197
74 52.4307 10.7311 15.5439
74 60.064 7.79888 29.6239
74 61.6091 7.20265 32.4572
0 69.5922 4.64703 48.4259
74 51.604 14.3717 10.0781
0 58.5741 18.8036 13.624
0 75.7688 12.4438 41.4367
0 75.9561 11.4514 46.5878
0 78.5629 17.5927 37.4644
0 58.9568 29.0511 -4.35307
0 60.4053 28.4384 -1.60609
0 69.0963 24.7623 14.8758
0 70.732 23.1572 22.7739
0 56.9198 32.1648 -8.05564
0 63.9751 30.0939 0.528201
0 71.2175 27.0304 14.2631
0 69.9563 26.6507 16.6672
0 72.666 26.4177 17.0101
0 74.3018 24.8126 24.9082
0 79.9085 23.3543 30.745
0 80.0958 22.3619 35.8961
0 74.9746 27.6934 21.5485
0 90.908 20.9539 51.7653
0 76.9086 30.954 15.7847
0 79.8056 29.7286 21.2787
0 68.8905 37.5109 -4.05686
0 77.5814 33.8348 12.425
74 69.6652 46.2657 -14.046
74 72.421 45.167 -8.77684
74 70.284 49.0797 -17.31
74 71.6333 48.6693 -14.7737
74 73.212 47.975 -12.0105
74 74.4695 47.6143 -9.42864
74 76.1289 46.9527 -6.81597
74 77.3326 46.3694 -4.28246
74 68.3315 53.0955 -26.2543
74 69.5754 52.4812 -23.4143
74 75.2105 50.4187 -12.6999
74 29.631 -8.20773 3.95458
74 29.3962 -7.03174 8.06981
74 32.119 -7.00593 8.25957
74 27.3387 -4.03728 -4.75824
74 28.7673 -4.56164 -1.97735
74 30.4984 -6.24929 5.62449
74 35.5296 -5.40628 10.4752
74 34.2464 -5.88828 12.8668
74 32.3055 -3.05791 0.060172
74 30.4089 -1.02711 1.78576
74 32.6065 -4.05231 5.02636
74 33.4802 -2.19497 6.88951
74 36.0656 -2.56052 7.28574
74 37.6224 -3.13177 9.93896
74 36.4133 -3.55243 12.3218
74 32.4811 1.2932 1.08823
74 33.968 0.676953 3.73656
74 41.825 -3.95135 12.6946
74 34.2644 4.53919 -4.65394
74 33.0537 4.13317 -2.20522
74 36.4589 1.56418 -1.08074
74 35.1943 1.11398 1.30995
74 45.2684 -2.3672 14.6978
74 41.3811 2.56264 3.64405
74 40.1669 2.12022 6.02686
74 45.8471 0.472319 11.4712
74 41.9832 5.42975 0.551049
74 44.8441 4.09516 5.68176
74 43.0068 6.1882 7.30814
74 72.3707 -5.93686 60.2719
74 71.1287 -6.30544 62.5777
74 46.5203 8.85577 4.47208
74 45.179 8.47135 6.82021
74 49.5102 6.48275 14.5357
74 67.3622 -2.13696 43.5679
74 66.7857 -0.7506 47.846
74 69.9659 -3.41461 49.2028
74 71.1229 -4.09796 51.9749
74 73.0914 -3.06874 56.709
74 76.1744 -5.59224 58.588
74 73.2544 -4.07472 61.9454
74 47.8785 8.36129 6.92975
74 50.6309 8.13261 7.24609
74 63.3274 4.94882 31.0206
74 65.5278 0.997385 39.9199
74 67.7261 2.13118 44.5702
74 71.4651 0.287169 52.9511
74 77.0272 -2.79702 55.075
74 76.7386 -1.48594 59.119
74 77.0048 -3.86698 60.3859
74 50.7316 12.2707 8.32916
74 78.1175 0.497229 60.3401
0 61.6851 17.062 9.7714
0 63.1336 16.4494 12.5184
0 64.7693 14.8442 20.4164
0 62.5451 18.9504 11.5628
0 65.2549 18.7175 11.9057
0 78.2914 13.2033 36.6285
0 67.5634 19.9932 16.4441
0 76.0672 17.3095 27.7749
0 68.909 25.7548 9.72473
0 73.0673 24.9091 12.8146
0 71.806 24.5294 15.2187
0 76.1515 22.6913 23.4596
0 70.8431 29.0153 3.96097
0 71.0303 28.0229 9.11204
0 76.8243 25.5721 20.1
0 76.0486 29.0656 13.9933
0 81.8426 26.6149 24.9812
0 86.0009 25.7693 28.0711
0 96.3276 20.488 52.4511
0 83.9639 28.883 24.3686
0 80.2912 33.6018 12.7679
0 79.5155 37.0953 6.66128
0 82.4125 35.87 12.1552
74 72.9712 43.7012 -12.9028
74 73.5875 46.5835 -16.2017
74 73.8652 45.5073 -11.0684
74 73.7992 50.1587 -24.5494
74 70.0765 50.0473 -22.5779
74 71.4525 49.5373 -19.7033
74 30.8011 -21.5036 18.2895
0 23.5943 -6.14977 -11.7946
74 28.7098 -9.75367 1.95664
74 30.4903 -6.73185 -3.50701
74 31.9051 -7.41575 -1.09343
74 30.779 -7.79414 1.44434
74 31.9896 -2.04468 -4.8283
74 29.9848 0.757994 -8.58036
74 34.6719 -2.207 -4.76043
74 32.9016 -0.217417 -3.02118
74 39.1258 -4.16379 3.21173
74 40.0014 -2.34291 5.12279
74 39.3425 -5.23099 8.14655
74 39.7084 -1.23378 0.063739
74 41.2274 -1.87222 2.71973
74 42.9432 -3.61763 10.2541
74 37.7426 2.0212 -3.48859
74 39.6933 4.09051 -3.87234
74 41.8005 1.05208 -0.38455
74 44.6779 -0.297552 4.72387
74 43.4877 -0.745398 7.13273
74 45.2558 2.63498 1.65158
74 72.2209 -9.8998 59.4698
74 43.2022 5.82598 -1.88048
74 46.715 7.34656 0.139586
74 46.1167 4.51046 3.35203
74 67.157 -1.31977 38.5431
74 72.1081 -5.4561 47.9077
74 73.5854 -5.51978 57.9992
74 63.0865 0.821688 30.1443
74 65.6876 -0.600653 35.7272
74 68.4083 -0.811837 36.1731
74 72.5157 -2.65749 44.5216
74 72.5968 -3.5196 49.8068
74 75.6389 -2.39624 52.0831
74 74.4431 -2.75474 54.44
74 75.7445 -3.22601 57.377
0 50.1157 10.2074 1.57713
74 76.6385 -0.492339 53.8005
74 79.3165 -0.403752 54.4012
74 79.6285 -2.76074 55.6692
0 63.5349 14.9407 8.3229
0 63.7221 13.9483 13.474
0 64.3949 16.8291 10.1143
0 65.8434 16.2164 12.8613
0 66.5162 19.0972 9.50161
0 64.1048 24.1958 -4.50311
0 70.086 20.7527 11.6359
0 74.2442 19.907 14.7258
0 67.6746 25.8513 -2.36882
0 73.4685 23.4005 8.61911
0 73.6558 22.4081 13.7702
0 76.3655 22.1752 14.1131
0 71.2443 27.5067 -0.234526
0 69.9831 27.1269 2.16957
0 79.9353 23.8306 16.2474
0 66.1232 32.8382 -14.5821
0 67.5717 32.2255 -11.8351
0 77.8984 26.9443 12.5448
0 80.7953 25.7189 18.0388
0 69.8802 33.5012 -7.29677
0 71.3287 32.8885 -4.54978
0 72.7772 32.2759 -1.8028
0 81.2809 29.5922 9.52803
0 69.1045 36.9947 -13.4034
0 84.8507 31.2476 11.6623
74 73.9672 44.9767 -20.4411
74 70.4182 48.6077 -26.7638
74 71.9705 47.9693 -23.9807
74 73.3537 47.4343 -21.1599
74 74.8052 47.0041 -18.7225
74 58.4525 -22.8863 50.8945
74 33.2202 -1.80074 -7.19829
0 47.1529 -5.70521 14.18
74 43.0153 1.37703 -2.83382
74 46.5269 3.01745 -0.778915
74 67.6184 -2.74304 34.3833
74 75.4637 -6.39048 51.2447
0 58.1421 15.8829 -6.86053
0 61.2263 13.6651 3.78451
0 66.8331 12.2068 9.62137
0 55.9179 19.989 -15.7142
0 69.1416 13.4824 14.1598
0 66.7302 18.5811 0.155037
0 65.9545 22.0745 -5.95162
0 64.6932 21.6948 -3.54753
0 67.403 21.4619 -3.20464
0 68.8515 20.8492 -0.457654
0 66.6273 24.9553 -9.31129
0 68.0758 24.3426 -6.56431
0 66.8145 23.9629 -4.16022
0 69.5243 23.73 -3.81733
0 68.263 23.3502 -1.41324
0 70.9728 23.1173 -1.07034
0 72.4213 22.5046 1.67664
0 72.6085 21.5122 6.82771
0 75.5055 20.2868 12.3217
0 67.3001 27.8361 -12.671
0 70.1971 26.6108 -7.177
0 68.9358 26.231 -4.77291
0 71.6456 25.9981 -4.43002
0 70.3843 25.6183 -2.02593
0 73.0941 25.3854 -1.68304
0 71.8328 25.0056 0.721056
0 63.6274 32.555 -24.2716
0 76.8511 26.0484 5.60233
0 79.7481 24.823 11.0963
0 83.9907 29.3592 9.87092
74 78.9332 45.6448 -24.9777
74 75.3046 45.3555 -22.7426
0 71.1128 -6.76926 35.9592
74 75.7547 -5.44406 46.7684
74 89.0556 -2.73088 51.8037
0 57.0949 14.987 -13.803
0 61.4404 13.1489 -5.56206
0 65.7858 11.3108 2.67889
0 57.7677 17.8678 -17.1627
0 67.1314 17.0724 -4.04046
0 68.5799 16.4598 -1.29347
0 71.6642 14.2419 9.35157
0 63.4588 21.7913 -15.6411
0 67.8042 19.9532 -7.40013
0 66.543 19.5735 -4.99604
0 69.2527 19.3406 -4.65315
0 67.9915 18.9608 -2.24905
0 70.7012 18.7279 -1.90616
0 69.44 18.3481 0.497929
0 72.1497 18.1152 0.84082
0 73.7855 16.5101 8.73888
0 62.8703 24.2923 -16.5967
0 68.477 22.834 -10.7598
0 67.2158 22.4543 -8.35571
0 69.9255 22.2214 -8.01282
0 68.6643 21.8416 -5.60873
0 71.374 21.6087 -5.26584
0 70.1128 21.2289 -2.86175
0 72.8225 20.996 -2.51885
0 71.5613 20.6162 -0.114762
0 74.271 20.3833 0.228129
0 67.8886 25.3351 -11.7154
0 70.5983 25.1022 -11.3725
0 69.3371 24.7224 -8.9684
0 72.0468 24.4895 -8.62551
0 70.7856 24.1097 -6.22142
0 73.4953 23.8768 -5.87853
0 72.2341 23.497 -3.47444
0 74.9438 23.2641 -3.13154
0 73.6826 22.8843 -0.727453
0 76.3923 22.6514 -0.384562
0 67.1129 28.8286 -17.822
0 71.4584 26.9905 -9.58109
0 72.9069 26.3778 -6.83411
0 74.3554 25.7651 -4.08713
0 75.8039 25.1525 -1.34014
0 78.7009 23.9271 4.15382
0 71.9439 30.8638 -18.0918
0 92.3072 27.668 16.0507
0 48.3381 1.52508 -12.1881
74 77.5219 -8.83159 38.6452
74 76.3153 -9.18727 41.1329
74 79.6712 -7.35286 43.085
0 48.908 10.7802 -25.0141
0 53.2535 8.94211 -16.7731
0 54.8892 7.33699 -8.87506
0 57.599 7.10406 -8.53217
74 83.4947 -3.74873 46.9943
74 86.2835 -3.95778 47.5107
74 89.0519 -4.24428 47.8159
74 91.7849 -2.94932 52.032
0 67.6356 9.18955 1.23038
0 64.6357 16.7892 -13.7299
0 67.5327 15.5638 -8.23595
0 68.9812 14.9511 -5.48896
0 67.7199 14.5714 -3.08487
0 70.4297 14.3385 -2.74198
0 71.8782 13.7258 0.00500156
0 74.7752 12.5004 5.49897
0 74.9624 11.508 10.65
0 76.4109 10.8953 13.397
0 65.3085 19.67 -17.0896
0 66.757 19.0573 -14.3426
0 68.2055 18.4446 -11.5956
0 69.654 17.8319 -8.84864
0 68.3927 17.4522 -6.44455
0 71.1025 17.2193 -6.10166
0 69.8412 16.8395 -3.69756
0 72.551 16.6066 -3.35467
0 71.2897 16.2268 -0.950581
0 73.9995 15.9939 -0.607689
0 72.7382 15.6141 1.7964
0 67.617 20.9457 -12.5512
0 70.3268 20.7127 -12.2083
0 69.0655 20.333 -9.80422
0 71.7753 20.1001 -9.46133
0 70.514 19.7203 -7.05724
0 73.2238 19.4874 -6.71435
0 71.9625 19.1076 -4.31025
0 74.6723 18.8747 -3.96736
0 73.411 18.4949 -1.56327
0 76.1208 18.262 -1.22038
0 74.8595 17.8823 1.18371
0 69.7383 23.2138 -13.1639
0 71.1868 22.6011 -10.4169
0 73.8966 22.3682 -10.074
0 72.6353 21.9884 -7.66993
0 75.3451 21.7555 -7.32704
0 74.0838 21.3757 -4.92295
0 76.7936 21.1428 -4.58005
0 75.5323 20.763 -2.17596
0 78.2421 20.5301 -1.83307
0 76.9808 20.1504 0.571021
0 76.2051 23.6438 -5.53564
0 77.6536 23.0312 -2.78865
0 80.3634 22.7982 -2.44576
0 83.7274 37.2022 -19.2441
0 73.6725 -29.522 58.7142
0 39.5814 -11.9368 -10.5731
74 77.5371 -7.86586 33.3182
74 78.6767 -8.4972 36.1319
74 76.7779 -4.47399 27.099
74 80.7582 -6.20273 35.5252
74 82.099 -6.72407 38.2822
74 80.1398 -9.01285 39.0653
0 62.3457 3.75739 -4.48671
74 84.0435 -4.57666 37.7393
74 83.5164 -7.3525 41.1627
74 86.8564 -5.66345 43.2794
0 61.7573 6.25844 -5.44229
0 67.5513 3.8077 5.54564
74 88.9532 -3.40743 42.6017
74 90.3309 -4.03534 45.3562
0 68.0368 7.68093 -2.96511
74 91.815 -4.45388 48.0772
74 93.4396 -4.88491 50.7312
74 96.1869 -5.15919 50.9775
0 66.4854 14.6679 -15.1784
0 65.2242 14.2882 -12.7743
0 67.9339 14.0552 -12.4314
0 69.3824 13.4425 -9.68446
0 68.1212 13.0628 -7.28037
0 70.8309 12.8298 -6.93747
0 69.5697 12.4501 -4.53338
0 72.2794 12.2172 -4.19049
0 71.0182 11.8374 -1.7864
0 65.897 17.1689 -16.134
0 68.6067 16.936 -15.7911
0 67.3455 16.5563 -13.387
0 70.0552 16.3233 -13.0441
0 68.794 15.9436 -10.64
0 71.5037 15.7106 -10.2971
0 70.2425 15.3309 -7.89306
0 72.9522 15.098 -7.55017
0 71.691 14.7182 -5.14607
0 74.4007 14.4853 -4.80318
0 73.1395 14.1055 -2.39909
0 75.8492 13.8726 -2.0562
0 69.4668 18.8244 -13.9997
0 72.1765 18.5914 -13.6568
0 70.9153 18.2117 -11.2527
0 73.625 17.9788 -10.9098
0 72.3638 17.599 -8.50575
0 75.0735 17.3661 -8.16286
0 73.8123 16.9863 -5.75876
0 76.522 16.7534 -5.41587
0 75.2607 16.3736 -3.01178
0 77.9705 16.1407 -2.66889
0 71.5881 21.0925 -14.6124
0 73.0366 20.4798 -11.8654
0 75.7463 20.2469 -11.5225
0 74.4851 19.8671 -9.11844
0 77.1948 19.6342 -8.77555
0 75.9335 19.2544 -6.37146
0 77.382 18.6418 -3.62447
0 80.0918 18.4088 -3.28158
0 78.8305 18.0291 -0.877489
0 78.0548 21.5226 -6.98415
0 83.0731 22.5653 -2.10287
0 85.7829 22.3324 -1.75998
0 82.1102 27.0512 -13.3606
0 87.1285 28.094 -8.47933
0 30.1333 -16.5233 -19.3801
0 44.4124 -9.9016 -10.8429
0 54.1589 -0.449395 -15.6978
0 55.6074 -1.06208 -12.9508
0 50.6734 3.27702 -22.1473
0 56.2802 1.81872 -16.3105
0 55.0189 1.43897 -13.9064
74 76.7201 -8.75805 26.3442
74 77.973 -9.43233 29.2032
74 80.1407 -7.12308 28.5477
74 83.3007 -5.55772 30.7507
74 81.9931 -5.90295 33.1255
74 84.6812 -6.09524 33.6003
74 84.1147 -8.89643 37.0037
0 59.0743 6.96763 -20.2828
0 60.71 5.36251 -12.3848
74 87.3417 -6.36298 34.0397
74 86.1593 -6.61092 36.4145
0 64.0926 8.01038 -15.4016
0 62.8313 7.63063 -12.9975
0 64.2798 7.01794 -10.2505
0 68.4381 6.17232 -7.1606
74 89.5682 -4.87274 38.504
74 92.9837 -3.24409 40.5973
74 91.6533 -3.63528 42.9738
74 94.388 -3.83208 43.3054
74 92.2764 -6.13059 44.0143
74 94.6118 -4.62893 48.1919
74 97.34 -4.97145 48.4474
74 98.9693 -5.4976 51.1581
0 61.8684 12.1165 -24.2552
0 69.2981 8.06069 -5.3692
74 96.5468 -1.49058 42.4566
0 66.8867 13.1593 -19.3739
0 68.3352 12.5466 -16.6269
0 67.0739 12.1669 -14.2228
0 69.7837 11.9339 -13.88
0 71.4194 10.3288 -5.98189
0 69.008 15.4274 -19.9866
0 67.7467 15.0477 -17.5825
0 70.4565 14.8147 -17.2396
0 69.1952 14.435 -14.8355
0 71.905 14.202 -14.4926
0 70.6437 13.8223 -12.0885
0 73.3535 13.5894 -11.7457
0 72.0922 13.2096 -9.34157
0 74.802 12.9767 -8.99867
0 73.5407 12.5969 -6.59458
0 74.0263 16.4701 -15.1053
0 72.765 16.0904 -12.7012
0 75.4748 15.8575 -12.3583
0 74.2135 15.4777 -9.95426
0 76.9233 15.2448 -9.61137
0 75.662 14.865 -7.20727
0 78.3718 14.6321 -6.86438
0 77.1105 14.2523 -4.46029
0 64.5596 23.6397 -37.6939
0 74.8863 18.3585 -13.3139
0 76.3348 17.7458 -10.5669
0 79.2318 16.5205 -5.07298
0 75.3719 22.2317 -21.8247
0 83.2872 22.0491 -11.4494
0 84.9229 20.444 -3.55138
0 74.0077 28.2263 -28.8869
0 87.0442 22.7121 -4.16407
0 37.6927 -26.4772 -5.52541
0 40.9538 -5.69892 -31.7901
0 42.4023 -6.31161 -29.0431
0 43.0751 -3.43081 -32.4028
0 56.8687 -0.682328 -15.3549
74 80.5698 -8.71665 24.3191
0 53.196 4.03653 -26.9555
0 66.9052 1.40316 -5.59233
74 84.0872 -6.90006 26.572
74 86.6878 -7.24545 26.9936
74 85.4081 -7.6021 29.4115
74 89.1507 -3.21539 28.4036
74 90.5379 -3.64083 30.8879
74 88.618 -6.025 31.678
74 92.0133 -4.19871 33.6749
74 90.0522 -6.52459 34.3791
74 93.4458 -4.82634 36.435
74 96.336 -5.97318 41.7486
74 94.2622 -8.26014 42.6691
74 97.7198 -6.48955 44.2229
74 98.3974 -8.93134 45.424
0 65.1666 9.38257 -22.9567
74 95.4183 -2.52144 35.7529
74 96.9165 -3.30955 38.4536
0 68.7364 11.038 -20.8224
0 70.1849 10.4253 -18.0754
0 69.5965 12.9264 -19.031
0 72.3062 12.6934 -18.6881
0 71.045 12.3137 -16.284
0 73.7547 12.0807 -15.9412
0 72.4934 11.701 -13.5371
0 75.2032 11.4681 -13.1942
0 71.7178 15.1945 -19.6437
0 74.4275 14.9615 -19.3008
0 73.1662 14.5818 -16.8967
0 75.876 14.3489 -16.5538
0 74.6147 13.9691 -14.1497
0 77.3245 13.7362 -13.8069
0 76.0632 13.3564 -11.4028
0 75.2875 16.8499 -17.5094
0 77.9973 16.617 -17.1665
0 76.736 16.2372 -14.7624
0 79.4458 16.0043 -14.4195
0 78.1845 15.6245 -12.0155
0 80.8943 15.3916 -11.6726
0 83.7913 14.1662 -6.1786
0 78.0816 21.9988 -21.4818
0 79.5301 21.3861 -18.7348
0 83.6884 20.5405 -15.6449
0 95.0706 28.3876 -12.6017
0 38.1782 -22.604 -14.0362
74 92.5635 -43.8778 82.9188
0 47.149 -9.65828 -24.9977
0 48.7847 -11.2634 -17.0996
0 40.7666 -4.70649 -36.9412
0 49.2703 -7.39016 -25.6104
0 50.7188 -8.00285 -22.8634
0 53.5129 -2.85393 -26.8357
0 61.4282 -3.03656 -16.4605
0 61.5125 2.34529 -20.7758
0 65.858 0.507234 -12.5348
74 84.4683 -8.44552 22.3146
0 64.8951 4.99315 -23.7925
0 69.9134 6.0359 -18.9113
0 71.3619 5.42321 -16.1643
0 77.1559 2.97247 -5.17635
74 91.7996 -2.45647 23.5694
74 89.8716 -4.53343 24.1048
74 93.2302 -2.93673 26.0444
74 91.2495 -5.27813 26.9636
74 92.5602 -5.66392 29.532
74 95.8525 -4.00915 31.5171
74 97.4444 -4.58175 34.2714
0 66.4279 9.76232 -25.3608
74 90.7428 -1.44258 20.7666
74 94.6324 -3.3816 28.9501
74 97.9939 -1.78873 30.762
0 71.4462 10.8051 -20.4795
0 74.156 10.5721 -20.1366
0 72.8947 10.1924 -17.7326
0 75.6045 9.95944 -17.3897
0 74.3432 9.57969 -14.9856
0 79.9499 8.12139 -9.14871
74 96.7048 -1.01668 28.3281
0 67.7735 15.5239 -32.0802
0 73.5675 13.0732 -21.0922
0 76.2773 12.8402 -20.7493
0 75.016 12.4605 -18.3452
0 77.7258 12.2276 -18.0024
0 76.4645 11.8478 -15.5983
0 77.913 11.2351 -12.8513
0 75.6888 15.3413 -21.7049
0 78.3986 15.1084 -21.362
0 77.1373 14.7286 -18.9579
0 78.5858 14.1159 -16.211
0 80.0343 13.5032 -13.464
0 82.744 13.2703 -13.1211
0 82.1556 15.7713 -14.0767
0 83.6041 15.1587 -11.3297
0 82.6412 19.6446 -22.5874
0 86.8837 24.1808 -23.8128
0 92.5748 28.1044 -22.2912
74 93.994 -46.3341 79.9116
0 40.5136 -20.852 -23.9954
0 45.7191 -20.8017 -13.9631
0 44.1677 -13.8148 -26.1764
0 49.7744 -15.2731 -20.3395
0 48.9987 -11.7796 -26.4462
0 51.12 -9.51146 -27.0589
0 49.8588 -9.89121 -24.6548
0 51.9801 -7.62309 -25.2675
0 59.0353 -9.69408 -16.6836
0 59.7081 -6.81328 -20.0433
0 58.4469 -7.19304 -17.6392
0 61.1566 -7.42597 -17.2963
0 59.8954 -7.80572 -14.8922
0 62.0167 -5.53761 -15.5049
0 58.344 -0.818752 -27.1055
0 62.5022 -1.66437 -24.0157
0 63.9507 -2.27706 -21.2687
0 64.6235 0.603744 -24.6284
0 66.072 -0.00894078 -21.8814
0 64.8107 -0.388692 -19.4773
0 66.2592 -1.00138 -16.7303
0 71.9503 2.92217 -15.2087
0 73.3988 2.30948 -12.4617
0 68.0904 8.63346 -31.9604
74 97.9594 -6.02487 30.1179
0 76.8657 10.3392 -19.7938
0 77.5385 13.22 -23.1534
0 80.9211 15.8679 -26.1702
0 79.6598 15.4881 -23.7661
0 81.1083 14.8754 -21.0191
0 87.3693 28.054 -32.3235
74 16.0525 -31.2744 -45.3094
0 32.4296 -31.4331 -25.7401
0 23.6357 -21.3827 -51.6884
0 37.5322 -25.0085 -25.1741
0 43.999 -24.5784 -17.5459
0 48.8301 -22.5433 -17.8157
0 45.1574 -17.8244 -29.4163
0 51.6242 -17.3944 -21.788
0 50.8485 -13.9009 -27.8947
0 50.0728 -10.4074 -34.0013
0 56.5396 -9.97732 -26.3731
0 54.5026 -6.86359 -30.0756
0 62.4179 -7.04622 -19.7004
0 64.352 -3.78567 -25.4642
0 65.8005 -4.39835 -22.7172
74 104.336 -21.1277 52.4039
0 66.4733 -1.51755 -26.0769
0 65.212 -1.8973 -23.6728
0 67.9218 -2.13024 -23.3299
0 66.6605 -2.50999 -20.9258
0 68.109 -3.12267 -18.1788
0 69.5575 -3.73536 -15.4318
0 67.3333 0.370811 -24.2855
0 105.667 -12.6782 43.7764
0 76.407 6.94222 -25.7806
0 80.9397 4.11173 -12.3886
0 82.3882 3.49904 -9.64164
0 78.7155 8.2179 -21.2423
0 83.7338 9.26064 -16.361
0 85.8551 11.5288 -16.9737
0 84.8921 16.0147 -28.2314
0 89.9948 22.4393 -27.6654
0 30.0182 -26.3345 -39.7449
0 39.9704 -29.6308 -25.667
0 40.6433 -26.7501 -29.0267
0 36.9706 -22.0312 -40.6273
0 39.9519 -17.8747 -39.4486
0 42.0732 -15.6066 -40.0613
0 66.2017 -5.90696 -26.9127
0 67.0617 -4.0186 -25.1213
0 69.183 -1.75049 -25.734
0 71.1171 1.51007 -31.4977
0 79.0324 1.32744 -21.1225
0 79.2196 0.335003 -15.9714
0 83.3779 -0.510615 -12.8815
0 75.3597 6.04629 -32.7231
0 81.1537 3.59555 -21.7352
0 85.5835 7.13935 -17.8095
0 86.0691 11.0126 -26.3202
0 92.0503 7.56941 -10.1812
0 90.2088 21.9231 -37.012
74 30.5839 -27.8462 -48.7098
74 35.2066 -26.8953 -44.1378
0 56.6693 -15.8753 -31.4044
0 62.4447 -6.56996 -34.1981
0 81.0694 -1.78629 -17.4199
0 83.8635 3.36262 -21.3923
0 86.7604 2.13725 -15.8983
0 90.9187 1.29163 -12.8085
0 92.5544 -0.313489 -4.9104
0 88.8817 4.40536 -16.511
0 89.3673 8.2786 -25.0218
0 85.8819 12.005 -31.4713
0 88.7789 10.7796 -25.9774
0 91.4886 10.5467 -25.6345
0 92.9371 9.93403 -22.8875
0 94.5728 8.32891 -14.9894
0 96.6941 10.597 -15.6021
74 35.7689 -28.3067 -48.0993
74 34.5376 -28.8865 -45.737
74 36.7188 -26.4772 -46.3418
0 64.1072 -7.69882 -40.7976
0 80.6949 0.19858 -27.7221
0 96.5255 -0.166671 -6.9716
0 95.6469 9.7011 -22.5446
0 93.4227 13.8073 -31.3982
0 48.4167 -37.2201 -24.5186
0 51.2951 -26.6893 -32.8062
0 81.199 -7.68431 -22.4512
0 85.4416 -3.14809 -23.6766
0 87.5629 -0.879972 -24.2893
0 90.4599 -2.10534 -18.7953
0 93.9268 5.92437 -26.1274
74 112.818 4.33298 -4.75632
74 5.26841 -60.1817 -49.5233
0 91.4497 -6.115 -22.0353
0 83.6187 -0.550529 -36.7258
0 92.7953 -0.353403 -28.7546
0 94.2437 -0.966088 -26.0076
0 92.0196 3.14008 -34.8613
0 97.8135 0.689342 -23.8733
0 92.8796 5.02844 -33.0699
0 102.729 8.10637 -28.4584
0 105.813 5.88856 -17.8133
74 111.824 3.34086 -11.764
74 111.49 4.5716 -7.54721
74 112.323 7.5429 -10.7246
74 114.199 4.49953 -7.19046
0 94.7479 -8.84898 -20.7368
0 99.6633 -1.43195 -25.3218
0 99.0748 1.06909 -26.2774
74 110.631 3.68541 -14.345
74 113.718 1.07375 -13.0511
74 116.117 -0.177252 -7.63783
74 117.609 -0.69692 -4.83415
74 112.026 4.27353 -16.7501
74 114.204 5.41439 -12.2656
0 90.2152 -6.01849 -34.1288
0 97.1675 -1.7152 -35.0113
0 95.1306 1.39854 -38.7139
74 111.367 -0.0156609 -17.4695
74 113.68 1.97827 -18.1601
74 116.392 0.776349 -12.6725
74 114.968 1.54366 -15.3715
74 117.422 0.257484 -10.0187
74 120.112 0.0415821 -9.62315
74 118.829 -0.32442 -7.23135
0 104.241 -15.5423 -12.6459
0 101.914 -5.06186 -30.9658
74 116.785 -0.681271 -16.7841
74 119.792 -4.29299 -10.3332
0 101.896 6.69427 -44.7474
74 113.855 0.699578 -22.2613
74 116.512 0.394616 -21.9518
74 115.23 0.0305474 -19.5492
74 117.909 -1.22254 -14.0653
74 120.267 0.882161 -14.6033
74 114.339 5.78924 -26.6073
74 107.328 9.66354 -44.0241
74 110.864 11.4954 -42.1402
74 119.691 -3.47212 -15.3873
74 117.96 -0.305643 -19.2044
74 120.916 -2.98103 -17.8198
74 114.698 2.81731 -35.374
74 117.335 3.19573 -25.3628
74 120.307 0.475655 -24.0868
74 119.17 0.0833089 -21.6416
74 106.103 8.66558 -50.8039
74 108.737 8.47139 -50.5055
74 110.714 7.09189 -42.7232
74 113.35 6.95892 -42.7294
74 117.055 4.24845 -30.6236
74 119.491 6.39596 -31.0287
74 118.476 3.6075 -27.8727
74 111.942 11.8592 -44.6469
74 112.767 9.44397 -43.6361
74 113.05 39.6509 -84.1952
0 104.352 -9.68421 -31.4588
0 106.287 -6.42366 -37.2225
0 106.474 -7.41609 -32.0715
0 102.801 -2.69724 -43.6721
74 113.08 2.4892 -43.3017
74 116.323 0.994569 -36.5079
74 117.84 0.261659 -33.7759
74 121.865 -0.213034 -21.3606
74 106.719 7.31846 -54.9432
74 111.967 5.81334 -49.137
74 115.155 4.82032 -44.2135
74 118.275 2.17311 -31.9664
74 121.083 1.75294 -31.7028
74 122.698 1.21925 -28.9089
74 121.504 0.850869 -26.5128
74 124.191 0.572884 -26.1475
74 123.008 0.210064 -23.7599
74 112.075 11.1147 -53.6178
74 110.025 8.81611 -52.7901
74 113.409 10.4666 -51.1182
74 112.316 10.1818 -48.5863
74 114.595 7.30467 -45.0797
0 123.547 4.35454 -27.5067
0 124.827 -7.02184 -16.1292
74 116.091 1.55389 -39.1099
74 117.482 -1.01437 -38.0113
74 116.242 2.34536 -44.0216
74 115.083 1.99757 -41.5942
74 117.697 1.70958 -41.3012
74 119.011 0.622857 -36.1226
74 121.776 0.370484 -35.6092
74 122.587 -0.254369 -33.0682
74 127.18 -2.049 -24.7231
74 126.035 -2.49268 -22.2674
74 115.978 6.16369 -51.4556
74 117.375 7.08658 -45.0445
74 124.132 4.01958 -32.1419
74 125.164 3.29063 -29.6536
0 117.229 -13.7297 -26.3846
0 115.192 -10.6159 -30.0872
0 116.64 -11.2286 -27.3402
0 119.35 -11.4616 -26.9973
74 115.999 1.53581 -51.5248
74 117.034 1.01478 -48.6504
74 115.738 0.638136 -46.213
74 118.304 0.309049 -45.6577
74 117.101 -0.0538504 -43.2653
74 119.714 -0.357813 -42.8299
74 118.571 -0.73962 -40.4502
74 121.169 -1.06467 -40.0262
74 120.078 -1.37574 -37.6286
74 122.648 -1.66258 -37.1905
74 124.093 -2.36608 -34.3689
74 125.291 -0.522739 -32.6659
74 127.937 -0.735863 -32.2745
74 126.59 1.23598 -30.9362
74 129.524 -1.3296 -29.5291
74 128.157 0.66707 -28.1736
0 116.181 -14.6256 -33.3271
0 120.611 -11.0818 -29.4014
74 123.121 -3.08357 -41.5329
74 121.97 -3.46143 -39.1255
74 126.295 -1.55802 -39.2572
74 127.79 -2.16976 -36.4901
74 127.626 -4.92 -33.1685
74 121.047 3.08967 -50.9376
74 121.148 2.84737 -48.306
74 122.076 0.43967 -47.4926
74 122.631 2.17157 -45.5658