ITEM: TIME
40.0
ITEM: TIMESTEP
0
ITEM: NUMBER OF ATOMS
400
ITEM: BOX BOUNDS pp pp pp
-300.694 300.694
-300.694 300.694
-300.694 300.694
ITEM: ATOMS type x y z
74 16.3949 99.1568 -8.53166
0 1.18407 -0.34043 0.76778
74 21.4186 48.1547 -50.5968
0 -1.15695 6.76494 4.18289
74 16.5673 49.2355 -49.8792
74 17.4294 50.2917 -52.6927
74 18.3961 51.0073 -55.529
74 17.3186 52.9678 -51.7205
74 14.4468 50.257 -53.7156
74 -0.599158 63.5739 -3.28441
0 5.1649 29.7398 -34.8836
0 12.4898 37.5432 -57.833
0 6.10804 49.7365 -34.7684
0 -7.8124 57.1672 6.97265
74 -2.51485 63.8802 -12.4341
74 -4.04626 62.3821 -1.68932
74 -3.18347 63.5512 -4.47072
74 -1.34327 66.7318 -9.68226
74 -1.41007 68.2172 -11.9878
0 1.33273 44.9593 -36.1706
74 -4.1547 61.3256 -17.078
74 -6.06492 62.4994 -10.9114
74 -1.39276 62.758 -16.088
74 -3.58656 66.5258 -16.4861
74 -0.446818 63.8969 -18.9784
74 -2.54074 67.3772 -14.211
74 -3.35155 77.7434 -7.95167
0 1.71102 35.9698 -44.3454
0 -1.54561 42.0997 -38.0616
0 -1.69362 45.1073 -37.0862
74 -7.31917 61.4861 -13.2241
74 -7.29341 64.5832 -17.7401
74 -5.24949 63.2746 -18.9377
74 -5.03538 67.2291 -20.8566
74 -6.35281 65.1674 -15.3629
0 -14.3095 6.44823 -7.10795
74 2.0036 27.1573 -60.3391
0 -10.3235 23.3559 -17.5496
0 -2.99854 31.1593 -40.4991
0 -7.3188 39.3214 -30.3712
0 -11.7213 50.4579 -14.0193
74 -8.35177 97.0144 -15.3376
74 -1.80009 26.4435 -58.4395
0 -7.92187 29.3898 -40.9259
0 -16.0966 20.5776 -9.8592
0 -7.15427 33.3729 -42.8191
0 -6.38667 37.3559 -44.7124
0 -8.51393 41.4203 -37.0242
0 -7.90535 26.4488 -52.3984
0 -10.9482 29.5378 -41.8415
0 -8.90323 28.4477 -43.3057
0 -7.072 30.3986 -49.0431
0 -4.32516 33.3248 -57.6492
0 -10.1806 33.5209 -43.7347
0 -10.1149 33.4875 -38.4862
0 -9.95034 27.5389 -50.9342
0 -9.03473 28.5144 -53.8028
74 -30.4422 56.7442 2.41608
0 -17.9823 28.8917 -46.0526
0 -19.3419 36.9392 -40.2576
74 -25.4455 33.6497 -23.1806
0 -34.7318 36.3705 10.5185
74 -27.1654 57.294 -20.3262
74 -26.0769 59.513 -21.8389
74 -33.2309 53.9707 0.675148
74 -15.3768 110.791 -39.112
74 -28.5758 60.0303 -23.7094
74 -30.7986 58.3761 -23.3888
0 -42.6099 69.8505 3.67135
74 -29.0146 14.8746 -58.841
74 -46.6812 35.9194 -24.0441
74 -47.665 68.3974 -9.83451
74 -45.2712 73.8745 -12.142
0 -48.8764 73.1875 -2.43298
74 -55.908 78.3496 18.9088
0 -37.7135 100.906 -34.8487
0 -39.1389 108.987 -34.3023
74 -45.7113 34.3121 -27.9012
0 -48.4434 42.2024 -19.8157
0 -50.4226 43.2592 -13.1029
74 -51.5117 67.518 -8.02198
74 -49.1115 73.0277 -10.3135
0 -52.9664 75.3677 0.495521
0 -47.0394 110.273 -18.9236
74 -48.8726 37.515 -27.7425
0 -47.7247 103.316 -23.2543
74 -49.8656 124.871 -20.9759
0 -54.6441 45.5061 -20.6715
0 -54.8579 48.547 -24.9446
74 -51.7923 123.071 -20.5061
74 -49.4388 125.512 -27.698
0 -51.9189 64.5459 -43.0147
0 -51.0033 65.5213 -45.8834
74 -55.8517 94.9951 -22.5898
74 -54.8486 96.1793 -25.3963
74 -23.2328 125.388 -120.428
0 -56.1184 110.717 -21.6704
0 -51.3266 112.553 -31.7407
0 -56.4144 116.732 -19.7196
0 -66.9963 55.021 -5.662
0 -65.7571 69.0024 -7.49764
74 -57.8983 96.5182 -26.1378
0 -67.8296 51.0713 -9.01729
0 -53.3936 69.7191 -59.1893
0 -67.062 55.0543 -10.9105
0 -67.2101 58.062 -9.93511
0 -70.2529 61.151 0.621799
0 -68.5697 66.1094 -4.14013
74 -41.8703 94.6638 -90.0132
74 -54.6492 76.259 -61.8606
0 -52.1379 80.7595 -72.4975
0 -51.3703 84.7425 -74.3907
74 -78.8918 55.233 19.5729
74 -69.8045 68.6318 -29.2552
0 -55.3123 83.9151 -72.4377
0 -41.9564 107.536 -107.293
0 -42.1044 110.544 -106.318
74 -56.2578 89.5343 -82.1379
0 -51.096 94.8409 -90.0787
74 -53.2988 99.6081 -89.9327
0 -48.0913 110.806 -102.9
74 -82.3766 33.2995 -10.3191
74 -83.8107 39.7801 -10.0558
74 -82.7041 40.5486 -7.62613
0 -80.7026 47.6803 -10.7865
0 -79.935 51.6633 -12.6797
0 -83.9593 53.8102 -4.50268
0 -52.4391 99.9474 -95.7563
0 -49.6923 102.874 -104.362
0 -51.8853 106.971 -101.923
74 -112.963 86.3064 94.3466
74 -56.0199 109.093 -106.772
74 -56.9919 111.097 -103.068
0 -56.7921 102.261 -113.822
74 -60.0172 108.499 -104.927
74 -62.1988 112.542 -102.48
74 -60.0428 111.557 -103.905
0 -109.936 53.0101 -0.841646
0 -113.746 52.1161 11.6085
74 -125.928 87.9569 55.4847
74 -76.2777 106.829 -117.386
74 -79.9394 108.321 -118.462
74 -88.5681 13.2051 -113.123
0 -120.846 51.5033 2.14889
74 -129.293 64.0591 -19.819
74 -138.805 71.6202 -3.03869
74 -142.212 66.3064 -9.09767
0 -148.313 58.8174 1.10781
74 -145.116 60.7181 -6.90627
74 -145.25 66.4457 -9.93617
74 -142.295 63.82 -10.2038
0 -149.311 60.8163 10.2005
74 -146.272 78.1319 -4.96616
0 -156.471 107.102 35.8776
74 -148.965 59.8269 -5.02257
74 -148.143 63.9327 -6.78099
74 -145.298 63.7969 -11.0327
74 -146.513 68.7386 -16.5613
0 -150.95 71.938 6.47378
74 -164.9 116.048 56.4418
74 -152.825 58.9846 -8.14015
74 -151.918 60.113 -10.9673
74 -150.087 61.9496 -16.4477
74 -151.113 61.1147 -8.67807
74 -150.271 62.1599 -11.4038
74 -149.186 63.1338 -14.1832
74 -148.352 64.0653 -17.0781
74 -149.215 62.976 -9.02286
74 -148.321 64.0632 -11.8053
74 -149.594 69.0077 -17.3292
74 -148.696 69.9249 -20.2411
0 -165.622 72.4448 38.6355
0 -155.967 51.1806 -2.18545
74 -153.945 61.1716 -14.6126
74 -152.212 63.1864 -15.17
0 -161.647 67.3902 13.7374
0 -159.602 66.3001 12.2732
74 -164.866 97.2924 25.6565
74 -164.447 97.9134 23.0271
74 -163.658 98.6131 20.3508
74 -166.424 98.3618 32.1785
74 -165.013 100.355 26.6339
74 -164.504 101.103 23.9449
74 -160.361 99.0686 23.4966
74 -163.422 101.862 21.0344
74 -164.291 97.6562 35.9384
74 -166.029 102.252 30.4211
74 -164.306 104.164 25.0139
74 -162.529 102.948 23.3181
74 -166.185 105.278 31.4283
74 -164.123 104.119 30.0141
74 -162.261 106.01 24.4092
0 -167.919 35.5924 18.3864
0 -164.997 54.5323 11.7888
0 -161.334 58.434 0.314054
0 -157.458 59.2948 -6.88756
0 -164.377 61.523 10.871
0 -168.89 56.6125 30.4629
0 -163.61 65.5061 8.97771
0 -162.37 79.4874 7.14207
0 -162.305 79.4541 12.3906
0 -164.284 80.5109 19.1034
74 -165.519 88.6719 20.7491
74 -163.877 88.8644 16.827
74 -164.504 91.2355 20.9569
74 -164.136 91.7068 18.3718
74 -165.477 93.2865 24.9577
74 -166.235 92.4876 22.5047
74 -164.567 94.4307 22.0704
74 -165.309 93.6599 19.6727
74 -163.616 95.5828 19.1215
74 -167.147 94.468 28.7805
74 -166.716 95.2797 26.1666
74 -166.19 95.9664 23.5733
74 -165.399 96.7141 20.6773
74 -164.272 97.8131 17.8133
74 -167.429 97.4887 29.8373
74 -166.808 98.3387 27.1686
74 -164.284 100.808 18.7999
74 -165.633 99.5138 29.31
74 -169.717 101.918 37.3095
74 -167.602 100.684 35.7952
74 -165.15 103.422 27.5815
74 -171.462 27.0589 15.1864
74 -170.644 28.2627 12.3397
74 -167.659 28.3301 13.4277
0 -163.445 59.5575 -3.47024
0 -167.957 54.647 16.1217
0 -164.509 61.5897 0.373875
0 -168.105 57.6546 17.0971
0 -165.803 69.6038 11.4174
0 -162.14 73.5055 -0.057338
0 -163.27 75.571 -1.46177
0 -169.827 71.7507 19.5944
0 -162.436 79.5208 1.89352
0 -170.205 80.7402 27.7693
0 -170.419 83.7812 23.4962
74 -167.312 90.0466 22.3092
0 -163.873 65.6394 -12.0165
0 -169.662 65.8021 7.14649
0 -173.473 64.908 19.5966
0 -172.557 65.8834 16.728
0 -169.81 68.8097 8.12192
0 -169.191 75.8004 7.2041
0 -165.676 82.7097 -3.2952
0 -169.58 62.8278 0.922517
0 -173.604 64.9747 9.09956
0 -178.413 66.0795 30.6424
0 -174.048 73.9976 12.0259
0 -172.003 72.9074 10.5616
0 -173.133 74.973 9.15717
0 -171.236 76.8905 8.66835
0 -176.877 74.0456 26.8559
0 -170.682 83.9145 2.50199
0 -169.701 84.8566 4.88185
74 -186.031 75.1277 54.9636
0 -178.637 47.1582 11.9128
0 -182.124 59.2701 25.396
0 -176.011 72.1134 7.26613
0 -172.135 72.9741 0.0645159
0 -176.861 71.1046 15.3834
0 -175.03 73.0555 9.64599
0 -174.114 74.0309 6.77731
0 -173.412 78.0473 -0.364485
0 -177.223 77.1532 12.0857
0 -171.515 79.9648 -0.853306
0 -177.157 77.1199 17.3342
0 -176.455 81.1363 10.1924
0 -178.434 82.193 16.9052
74 -188.171 76.2965 51.1832
0 -178.445 60.2309 2.4488
0 -178.741 66.2461 4.39966
0 -177.76 67.1882 6.77952
0 -176.844 68.1636 3.91084
0 -184.531 66.4088 23.5626
0 -178.056 73.2035 8.73038
0 -179.185 75.269 7.32595
0 -183.911 73.3995 22.6448
0 -182.08 75.3504 16.9074
0 -180.249 77.3012 11.1701
0 -178.204 76.2111 9.70581
0 -179.333 78.2766 8.30138
0 -184.059 76.4071 23.6202
0 -180.183 77.2679 16.4186
0 -183.078 77.3492 26.0001
74 -178.039 22.89 -12.9984
74 -178.277 24.4782 -10.8552
0 -186.198 58.5094 16.852
0 -181 70.3772 1.5908
0 -180.084 71.3526 -1.27788
0 -177.124 71.2379 -5.61082
0 -184.597 66.4421 18.3141
0 -180.934 70.3439 6.83934
0 -183.127 74.4416 9.27903
0 -182.212 75.417 6.41034
0 -179.251 75.3023 2.07741
0 -178.336 76.2778 -0.791273
0 -176.504 78.2286 -6.52864
0 -186.724 70.5066 26.0023
0 -183.977 73.4328 17.3963
0 -184.191 76.4738 13.1231
0 -183.275 77.4492 10.2545
0 -181.23 76.3591 8.7902
0 -182.36 78.4247 7.38577
0 -181.378 79.3667 9.76563
0 -186.263 58.5427 11.6035
0 -193.183 60.7709 29.362
0 -185.792 68.541 11.6611
0 -186.921 70.6066 10.2567
0 -184.174 73.5328 1.65062
0 -191.647 68.737 25.5755
0 -180.594 80.4088 -3.60013
0 -189.131 77.6453 24.1689
0 -192.941 76.7512 36.619
0 -186.68 86.5868 17.5137
0 -190.244 76.7698 11.2919
0 -185.452 78.606 1.22162
0 -186.663 83.6458 6.04116
0 -185.128 91.6119 2.25466
0 -188.396 75.7797 -5.91796
0 -190.309 76.8032 6.04338
0 -190.457 79.8108 7.01881
0 -191.735 84.884 6.58981
0 -195.841 90.0051 20.9908
0 -198.111 72.174 3.72555
0 -191.636 78.9687 -11.1067
0 -209.657 66.6175 19.1064
0 -199.476 93.3941 -15.6892
74 -208.144 51.1476 -12.7924
0 -207.941 65.694 -8.60055
0 -203.741 79.5607 -14.7691
74 -211.944 50.2197 -10.9682
74 -205.648 59.837 -28.0105
74 -215.137 87.6915 -23.4
0 -214.136 104.132 -20.2096
0 -209.706 112.017 -33.5776
74 -218.877 86.7636 -26.4255
74 -217.133 88.7535 -27.0852
74 -221.868 83.7616 -23.321
74 -220.824 84.9382 -25.9692
74 -221.499 87.0534 -27.5943
74 -219.413 89.7676 -25.7778
74 -225.014 83.694 -24.2769
74 -223.384 85.211 -27.1521
74 -223.715 88.0372 -28.6533
74 -222.516 89.4403 -26.5772
74 -223.263 91.8568 -30.2435
74 -232.61 89.7928 -2.04801
0 -227.387 109.731 -13.8039
74 -228.431 80.3527 -28.3823
74 -226.739 84.9688 -30.3989
74 -226.815 88.1298 -29.5674
74 -225.578 86.2244 -28.2358
74 -225.674 89.3807 -27.4226
74 -226.216 92.0506 -31.1814
0 -229.323 126.868 -15.5798
74 -221.846 149.173 -29.0474
74 -228.624 83.1475 -30.0079
74 -230.639 84.639 -28.9016
74 -230.621 87.6775 -27.941
74 -228.663 86.32 -29.1838
74 -230.768 90.7791 -27.1887
74 -228.753 89.4442 -28.3093
74 -228.275 93.2824 -29.9319
0 -228.418 105.881 -32.9049
74 -224.713 130.118 -43.3281
74 -223.847 131.127 -46.1887
74 -223.011 132.209 -43.7764
74 -228.68 132.273 -30.396
74 -227.895 133.338 -33.2576
74 -223.062 132.034 -38.5719
74 -225.954 135.279 -38.6476
74 -224.078 134.325 -34.9095
74 -238.449 130.032 6.29959
74 -240.06 74.6118 -8.16611
74 -232.993 83.3119 -28.7438
74 -234.228 85.4006 -30.1018
74 -231.797 86.6724 -30.1511
74 -231.846 89.4731 -29.3857
74 -232.164 92.4211 -30.5243
74 -228.75 129.43 -41.6138
74 -229.611 128.529 -33.4902
74 -228.652 129.43 -36.3736
74 -227.758 130.251 -39.2765
0 -235.162 124.123 -13.1379
74 -232.679 131.654 -28.3895
74 -231.786 132.659 -31.3211
74 -226.942 131.467 -36.9621
74 -225.95 132.16 -39.5703
0 -234.471 106.177 -34.7361
74 -232.428 125.744 -35.2317
74 -233.375 127.708 -36.856
74 -232.656 128.699 -39.7348
74 -233.597 127.896 -31.5371
74 -232.619 128.828 -34.4785
74 -231.667 129.728 -37.3675
0 -242.409 126.518 -21.6221
0 -238.489 143.459 -37.3123
0 -242.086 139.524 -20.589
74 -241.904 55.3843 -91.7667
