ITEM: TIME
40.0
ITEM: TIMESTEP
0
ITEM: NUMBER OF ATOMS
376
ITEM: BOX BOUNDS pp pp pp
-300.694 300.694
-300.694 300.694
-300.694 300.694
ITEM: ATOMS type x y z
74 80.9509 123.924 -69.4767
74 40.1193 9.99175 -95.4054
74 99.0707 33.8418 -86.6348
74 117.675 22.4466 -80.2794
74 117.046 26.6789 -79.0274
74 50.7297 20.7117 -66.1297
0 111.465 20.1322 -73.8871
74 37.8881 11.0246 -66.7733
0 55.3703 14.8061 -64.3311
74 127.242 21.3287 -72.708
0 59.343 7.29493 -68.264
0 56.5881 9.46067 -64.356
0 111.324 10.7226 -72.6173
0 115.688 11.7171 -72.6555
74 106.609 21.7415 -63.4872
74 105.612 34.4484 -55.9509
0 84.9588 5.64035 -69.7995
0 94.6882 13.4622 -65.9937
0 86.7854 -2.37783 -69.8368
0 94.1176 5.84091 -67.2999
0 88.1778 11.9607 -62.0599
74 70.0939 68.9186 -18.2809
0 65.6063 0.251662 -60.5865
0 84.6394 -2.88482 -65.9412
0 90.1832 3.05814 -64.6856
0 101.488 3.76568 -66.0816
0 97.9455 9.48855 -59.5727
74 84.4821 70.2315 -17.9489
74 83.0919 86.7765 -2.60954
0 81.0968 2.83805 -59.4323
74 81.138 85.5073 -1.11085
0 80.5262 -4.78319 -60.7385
0 75.1952 -1.33611 -55.5109
0 96.8043 -5.75393 -62.1851
0 115.837 -8.89041 -67.5398
74 -8.09477 22.8207 -23.6696
0 99.2015 -6.15087 -60.9162
74 62.8599 33.7262 -24.2339
74 73.3166 54.6425 -13.2332
0 74.9655 82.6672 6.7332
74 67.3271 -6.58626 -49.0429
74 64.8014 -5.13057 -47.7456
74 77.8536 59.5085 -8.56321
74 76.8597 63.8592 -3.98816
74 60.8791 -8.05486 -45.1883
74 65.385 -7.7563 -47.4142
74 69.5139 -6.12175 -45.2759
0 10.4744 22.1723 -18.6635
74 40.2691 -14.5856 -44.0847
0 13.0887 10.5969 -21.3017
0 7.93663 13.1596 -18.6626
0 9.90381 14.551 -19.9697
0 14.0894 16.4299 -17.4195
0 10.9044 20.3839 -16.0875
0 82.0674 -11.0521 -47.8458
0 84.0346 -9.66072 -49.1529
0 73.5516 -3.65096 -41.2862
0 82.5573 48.8452 -6.34593
0 82.949 57.3509 -2.45124
0 5.00289 16.2098 -12.1661
0 22.4264 9.9131 -21.3906
0 84.2858 -10.5647 -43.9884
0 75.2591 50.9009 0.1888
0 84.1668 52.0054 -2.47611
0 71.2865 58.4121 4.1217
74 69.0652 72.5079 15.1668
74 68.3176 75.9334 17.6755
74 -5.17199 0.476965 -18.2674
0 74.0797 45.9524 -1.10498
74 -7.53826 0.577901 -12.3679
0 13.77 7.90468 -13.5612
74 89.5776 -19.2469 -45.884
0 71.5419 36.9398 -1.10406
0 29.1156 21.6499 -0.746769
74 82.5243 -18.114 -34.196
74 23.2392 10.3496 -2.5592
74 22.3755 12.8428 -1.93502
74 21.7812 15.3113 -1.22324
74 115.826 -7.58361 -32.2523
0 69.4 15.8644 -7.59873
74 22.1347 5.48976 -3.99348
74 19.3398 9.60681 -2.44847
0 60.6754 -6.69289 -17.9126
74 23.2533 11.4388 0.0633611
0 71.4055 6.96182 -10.2245
0 70.7966 9.63455 -10.2121
74 116.577 -10.1844 -32.5033
74 117.878 -6.35822 -26.2885
0 66.6451 18.0301 -3.69069
74 119.952 -4.9268 -27.8082
0 -0.357993 -0.0662248 0.76571
74 22.2885 6.27488 -1.16695
74 23.7651 9.71218 2.24959
74 118.667 -8.92753 -26.6108
0 13.3441 0.244378 0.638633
0 60.3901 -4.94362 -4.98263
74 80.358 -1.74409 -5.23233
74 79.7651 0.907793 -4.94117
74 74.884 8.27407 0.643733
74 14.1519 -12.6842 1.26378
0 19.3563 -5.89496 3.1516
0 60.8201 -6.73195 -2.40659
74 73.6201 4.2451 1.88766
74 15.3452 -13.7659 5.07394
0 61.0713 -7.63588 2.75794
0 155.513 21.3561 7.11902
0 21.8599 3.963 21.2452
0 36.5285 -0.167926 15.9287
74 117.474 -19.4968 -1.99929
74 111.217 -10.8997 3.14458
74 115.423 -9.61349 3.23025
0 120.674 -7.18736 4.78746
0 115.735 4.76536 13.9097
74 91.2086 -50.1221 -17.0073
74 79.1026 -36.6886 -4.01714
74 78.3575 -33.2858 -1.15771
74 83.116 -34.5636 -1.3663
74 147.045 -49.2683 -22.0841
74 144.536 -47.8628 -20.7375
74 148.827 -46.9729 -20.8599
74 117.948 -20.099 3.12612
74 115.034 -17.4124 1.87776
74 112.978 -17.8284 5.65057
74 119.146 -15.9967 1.95412
74 117.213 -16.628 5.73033
74 112.406 -15.191 5.56204
74 112.141 -14.3381 8.12715
74 109.134 -11.4426 6.88147
74 107.078 -11.9958 10.6892
74 111.535 -11.7011 8.04664
74 111.325 -10.8468 10.5944
74 106.583 -9.27714 10.6552
0 174.626 -22.9367 -11.2632
74 142.852 -2.98349 7.14041
74 133.222 -67.5053 -32.1772
74 81.0619 -35.3535 2.37125
74 234.189 -84.7095 -57.6049
74 60.9051 0.122255 26.8461
74 119.207 -25.4917 3.13492
74 125.107 -23.2685 1.84479
74 120.997 -23.1014 4.40757
74 120.176 -21.3954 1.92227
74 118.356 -21.8905 5.69267
74 119.605 -17.7477 4.60751
74 116.984 -15.8035 8.34441
74 114.58 -15.4734 7.12846
74 113.754 -12.0032 9.57568
74 108.783 -9.71264 12.1058
0 158.208 -31.3755 -8.54675
74 112.888 -8.49036 12.0473
0 171.301 -28.3922 -8.66139
0 175.665 -27.3978 -8.69961
0 190.726 -23.023 -10.1214
74 152.226 10.6583 20.7701
0 116.931 -72.5597 -26.3576
74 80.8499 -34.2037 4.96448
74 118.812 -23.8124 8.20849
74 118.24 -21.1591 8.2839
74 115.633 -19.8257 9.37403
74 117.265 -17.5553 10.9072
74 110.534 -17.6131 11.7882
74 116.719 -14.9015 10.9886
74 111.694 -12.5948 13.3159
74 107.22 -11.8361 18.1244
0 114.845 -11.3811 16.4618
0 110.421 -74.0612 -22.4238
0 82.9358 -22.4063 18.024
74 119.951 -38.6169 1.492
0 79.572 -17.5678 21.9445
0 76.9959 -16.2865 23.2641
74 124.21 -37.4678 1.58865
74 121.275 -24.0194 9.36182
74 118.539 -22.8155 10.6608
74 118.292 -21.9128 13.1855
74 115.94 -21.6424 11.9351
74 113.274 -19.7336 15.516
74 110.298 -16.8098 14.389
74 112.762 -17.0395 15.5443
0 156.13 -11.3336 13.4921
74 126.563 -39.0283 0.312355
74 126.7 -37.8362 2.73736
74 126.31 -37.0795 5.35241
74 118.915 -24.6477 13.2591
74 113.877 -22.3517 15.5651
74 115.461 -20.1637 17.1078
74 113.139 -18.8777 18.0869
0 201.958 -11.1762 7.89574
0 120.01 -75.6489 -17.3481
0 72.8827 -18.1848 28.4668
0 120.286 -25.1416 17.6686
74 116.094 -22.8697 17.0447
0 174.809 -33.2697 2.92413
0 163.718 -24.5872 10.8033
0 183.717 -32.1652 0.259225
0 171.837 -19.9256 10.7393
0 201.175 -28.1875 0.106364
74 232.234 -18.0049 3.20304
74 227.316 -11.6535 6.36105
74 126.223 -98.925 -29.8132
0 114.466 -81.5919 -18.6037
0 129.956 -79.0055 -17.4494
0 84.6176 -19.2656 29.6469
0 170.662 -45.4425 -0.944771
0 131.234 -22.6653 21.4496
0 188.333 -32.0747 5.38553
0 193.089 -22.5746 9.242
74 145.341 -73.0352 -11.2684
74 149.377 -68.1017 -9.08455
74 153.241 -66.9027 -8.8321
74 153.111 -63.5975 -6.61351
0 139.933 -51.5192 1.91121
0 137.356 -50.2379 3.23077
0 122.722 -35.8325 17.6189
74 153.052 -44.309 7.55668
0 140.967 -35.4119 14.8651
0 123.935 -20.6096 27.9843
0 177.424 -44.845 0.285929
0 136.028 -23.4592 23.9874
0 125.903 -19.2182 26.6772
0 117.996 -14.4898 33.2243
0 150.697 -27.5901 18.6709
0 162.968 -31.3241 12.0856
0 180.034 -35.8519 8.03801
0 185.399 -29.0246 11.882
0 190.155 -19.5245 15.7385
0 165.395 -0.878183 32.8164
74 143.419 -74.5966 -10.0808
0 70.9921 -40.1642 27.1367
74 143.805 -73.0629 -7.89875
74 145.742 -71.5766 -9.03832
74 147.833 -72.1094 -7.53392
74 149.605 -70.7344 -8.86454
74 149.609 -69.8223 -6.33615
74 151.506 -68.4674 -7.53318
74 149.146 -66.1667 -4.13815
74 151.089 -64.8364 -5.38686
74 153.174 -65.1799 -3.77528
74 155.082 -63.8753 -4.95388
74 152.956 -61.4681 -1.72287
74 154.979 -60.1582 -3.10327
74 155.609 -61.2591 -0.730047
0 126.695 -43.3437 13.686
74 155.155 -43.6876 11.3082
0 123.365 -28.2308 26.6781
74 90.6068 -11.0632 43.299
0 152.702 -36.4927 16.0452
0 187.191 -47.3172 2.77311
0 151.127 -29.3784 21.247
0 180.643 -38.5247 8.02557
0 175.491 -35.962 10.6647
0 162.432 -28.6709 19.851
0 136.671 -15.8575 33.0466
0 177.1 -32.8018 14.5345
0 148.764 -18.7071 29.0497
0 198.888 -38.104 5.27181
0 194.737 -29.7084 11.7932
74 141.384 -76.068 -8.80258
74 140.021 -75.8555 -5.57183
74 141.89 -74.4437 -6.70721
74 144.02 -74.8439 -5.1357
74 143.625 -72.1708 -5.36317
74 145.838 -72.5685 -3.85605
74 145.428 -69.8361 -4.08919
74 147.63 -70.2272 -2.60519
74 147.223 -67.5343 -2.8753
74 149.4 -67.8851 -1.36352
0 91.6346 -40.1405 25.6518
74 151.316 -66.5081 -2.58036
74 149.108 -64.2263 0.855044
74 152.818 -64.6592 -1.11205
74 150.985 -61.7564 2.00374
74 152.929 -60.4436 0.737115
74 152.937 -59.1973 3.11559
74 150.266 -57.1215 6.74731
0 123.761 -40.2936 20.1825
0 130.701 -40.5805 18.8247
0 125.37 -37.1334 24.0523
0 119.609 -31.898 26.7039
0 126.55 -32.1849 25.3461
74 88.5269 -11.5102 47.1595
0 180.681 -48.8186 6.70693
0 142.219 -30.4829 23.9119
0 156.888 -34.6138 18.5954
0 193.774 -45.8353 6.59229
0 183.47 -40.7099 11.8705
0 185.258 -38.4342 13.1519
0 182.073 -34.4801 14.4839
0 157.135 -14.9494 34.1502
0 194.988 -30.6124 16.9577
0 176.347 -18.9702 26.2071
74 203.733 12.8956 46.5097
74 140.191 -78.5708 -4.9837
74 140.361 -77.4635 -2.39918
74 141.994 -75.2895 -1.49986
74 142.103 -76.206 -3.9662
74 143.847 -73.0344 -0.182944
74 141.637 -72.6565 -1.67672
74 147.902 -71.9933 0.128881
74 143.425 -70.331 -0.394596
74 147.518 -69.2678 -0.0850795
74 145.249 -67.0496 3.38087
0 158.076 -70.8021 -0.891363
74 149.007 -67.4609 1.40792
74 147.128 -64.5218 4.61879
74 149.043 -63.1624 3.32548
74 147.109 -63.4928 7.0815
0 103.191 -40.3368 29.4203
74 151.039 -60.8087 4.44647
74 148.434 -59.5174 5.49037
74 148.98 -61.1092 8.21468
0 133.316 -52.1558 16.1865
0 129.164 -43.7602 22.7079
0 126.588 -42.4789 24.0274
0 130.344 -38.8117 24.0017
0 134.529 -36.9329 26.5519
0 131.344 -32.9788 27.8839
0 149.411 -31.6737 27.7186
0 182.291 -45.6585 10.5768
0 184.079 -43.3827 11.8581
0 145.438 -24.1626 31.6515
0 181.716 -32.7113 19.6608
0 191.232 -34.2795 16.9835
0 183.504 -30.4355 20.9422
0 189.657 -27.1653 22.1853
74 140.684 -79.9521 -1.51107
74 142.458 -77.858 -0.815401
74 141.947 -74.4043 0.991794
74 141.963 -73.5639 3.50895
74 146.002 -73.3913 1.36473
74 145.575 -72.8982 4.12077
74 147.368 -70.5947 5.39543
74 143.352 -68.5276 4.63695
0 129.594 -45.5485 25.2839
0 138.323 -43.5597 25.2075
0 128.198 -39.3187 27.8973
0 112.741 -31.6306 35.8146
0 180.932 -49.7226 11.8715
0 142.291 -30.5025 31.6649
0 193.847 -45.8548 14.3453
0 192.271 -38.7406 19.5471
0 174.631 -21.2656 32.6787
0 195.452 -22.1263 28.6054
74 145.309 -71.8923 6.65387
74 146.564 -69.8913 7.99265
0 111.779 -47.7575 30.6137
0 203.793 -49.2114 14.244
0 189.337 -35.6905 26.0436
0 192.305 -28.4662 28.6187
0 182.001 -23.3408 33.897
0 83.0505 -42.1684 41.2342
0 122.905 -46.1656 31.8062
0 148.878 -49.589 25.0938
0 107.661 -29.0875 46.2068
0 169.913 -41.0596 27.5036
0 190.555 -41.0359 26.0188
0 202.465 -22.4327 35.0006
0 96.5738 -40.9734 43.6956
0 189.376 -45.9844 24.725
0 192.378 -28.4857 36.3717
0 107.308 -47.8871 40.9934
0 113.495 -34.3424 51.3082
0 204.083 -60.4093 18.0899
0 183.866 -41.6529 32.5411
0 192.595 -39.6641 32.4646
74 150.018 -101.338 3.55652
0 147.528 -94.7899 5.60791
0 118.864 -48.0835 44.762
0 200.361 -53.802 27.1873
74 89.5764 -106.56 11.8468
0 100.657 -58.7981 46.1971
0 116.36 -46.8217 53.8345
0 102.301 -45.3635 59.1386
0 96.3608 -39.2437 64.3786
0 203.257 -35.4384 49.1755
0 115.036 -40.6114 64.2009
74 149.831 -124.582 18.456
