ITEM: TIME
40.0
ITEM: TIMESTEP
0
ITEM: NUMBER OF ATOMS
750
ITEM: BOX BOUNDS pp pp pp
-300.694 300.694
-300.694 300.694
-300.694 300.694
ITEM: ATOMS type x y z
0 28.9254 -62.0303 186.857
0 44.0368 -55.6725 175.925
0 51.1999 -66.9611 181.553
0 27.7358 -62.7255 167.392
0 34.2376 -71.3543 172.966
74 39.5792 -46.2134 155.747
74 68.7472 13.7044 119.888
0 63.2952 -67.0059 170.52
74 66.8932 12.4607 118.102
74 61.8775 -86.4517 179.098
74 41.8815 -61.868 159.236
74 -23.6981 -16.8555 110.707
74 40.3139 -64.9472 155.18
74 42.2228 -63.6405 156.672
74 44.8565 -65.0175 157.564
74 44.2043 -62.2225 157.778
0 41.5232 -80.1061 163.052
74 42.7862 -64.8795 154.261
74 45.2498 -66.8244 154.738
74 43.2714 -66.4353 152.255
74 46.2189 -68.8867 151.736
0 62.375 -70.2994 158.854
74 33.0228 -44.776 133.135
0 50.6819 -78.8678 158.33
74 44.4524 -70.4057 150.464
0 44.8753 -40.4378 127.97
0 75.0772 -10.6188 113.733
74 34.23 -49.1105 126.911
0 38.3616 -52.3154 132.91
0 69.5164 -15.7998 112.199
0 80.828 -15.7216 116.653
74 47.8714 -15.2262 103.946
0 65.0881 -16.0166 109.389
0 79.5159 -18.9537 112.73
74 48.3301 -17.9594 103.895
74 50.0975 -14.9102 99.9915
0 47.4187 -70.7174 136.103
74 46.1804 -79.9034 135.578
74 48.0343 13.2357 72.4844
0 51.1404 -43.0653 107.604
0 52.1713 -57.7413 114.243
74 46.9941 -29.0591 93.4923
74 51.2987 -27.9299 93.7816
74 49.3115 -28.5394 89.8037
0 45.6137 -15.7853 81.228
74 51.5067 -67.7522 112.355
74 121.592 62.8173 35.8713
0 55.1301 -47.0696 93.604
0 33.931 -32.9054 76.891
0 44.7832 -19.9449 72.1612
0 35.2535 -38.2251 77.0002
0 38.6614 -31.884 69.3584
0 51.0157 -25.9754 69.9366
74 93.8612 -7.37185 63.545
74 89.4197 -6.76349 58.1238
74 89.4712 -7.63342 60.6744
74 58.0201 -52.7588 81.5068
0 31.217 -38.5033 66.4464
0 31.5086 -29.147 59.9169
0 33.3024 -26.8426 58.6954
0 72.8085 -29.9786 69.7773
0 61.0375 -17.1745 56.1402
74 84.9951 -6.14437 52.84
74 85.011 -6.97377 55.3826
74 89.9365 -8.45917 55.5386
74 92.5391 -9.73472 57.0233
74 92.5688 -10.6613 59.5845
74 89.2795 -5.86212 55.5561
74 56.2356 -61.6419 81.5186
74 55.3277 -58.9123 81.446
74 55.9387 -53.4588 77.5313
74 51.5971 -50.8529 74.9734
74 53.8259 -52.1167 76.2797
74 55.5008 -49.819 75.068
0 35.3759 -35.6882 61.4586
74 98.4505 -25.1313 68.9171
74 86.4043 -12.2836 55.3903
74 88.0966 -8.90592 51.7524
74 88.0292 -9.77858 54.2521
74 90.6165 -11.0511 55.6631
74 106.618 31.8202 29.0773
74 117.684 49.9598 18.2939
0 36.1152 -59.7205 74.6267
74 58.2029 -63.0958 82.6826
74 53.5596 -59.5801 77.3891
74 57.5114 -59.5847 80.0599
74 54.5885 -53.8145 73.6602
74 55.3259 -49.1499 72.4233
0 69.9825 -46.6651 71.0609
0 71.6084 -22.1221 54.1265
74 81.455 -9.23541 50.1694
74 86.1116 -10.2706 50.2862
74 88.6181 -11.5793 51.6825
74 80.6682 4.78985 38.2205
74 83.2192 3.53009 39.6148
74 84.8993 5.85796 38.3395
74 87.3696 4.54794 39.8453
74 117.633 50.9248 15.6069
74 120.553 47.6118 17.2626
74 52.4365 -54.2541 69.86
0 52.0792 -37.2484 58.4343
0 84.9038 -30.0234 58.744
74 3.87066 28.8686 -0.208554
74 86.6146 -12.2197 47.8115
74 85.73 -8.77496 45.134
74 78.5907 4.1446 34.3379
74 81.3615 2.93727 35.6717
74 83.5845 1.85326 37.0353
74 86.1317 0.658461 38.4053
74 82.8489 5.18666 34.4925
0 90.6225 39.2137 13.1941
0 57.3588 -49.9754 62.6846
74 65.7073 -41.5242 58.7853
74 67.3502 -39.1083 57.538
74 67.275 -39.821 60.0635
0 75.0045 -36.2874 56.9989
0 82.5609 -18.5794 48.1827
0 67.7856 8.32846 23.9297
74 79.6809 1.55177 34.112
74 67.0316 -50.8889 61.2184
74 64.3566 -45.8296 57.3478
74 63.8564 -42.2823 54.8941
74 66.1259 -44.2342 58.6257
74 65.6227 -39.923 53.6074
74 65.6449 -40.7071 56.2269
74 69.6353 -38.5342 53.6498
74 67.3613 -38.3117 54.997
74 32.4539 -12.2236 25.581
0 67.4822 -21.5343 40.9733
0 81.9998 -25.3374 46.9141
74 58.0334 -49.0073 55.8654
74 63.1426 -53.6862 58.6497
74 65.0505 -52.4713 60.0235
74 64.4658 -54.6118 61.4292
0 51.91 -44.0679 49.4222
74 62.8355 -49.9412 55.997
74 65.2804 -50.3185 55.0978
74 62.5192 -46.4018 53.5183
74 64.8195 -48.5677 57.359
74 66.6922 -45.2744 53.4978
74 66.6351 -46.1236 56.0356
74 68.483 -42.8121 52.2512
74 66.1698 -42.5791 53.5478
74 70.2186 -40.3995 50.9732
74 70.2438 -41.2005 53.506
74 32.2624 -19.6278 26.8747
74 67.4312 -36.6872 49.9161
74 69.6885 -36.9523 48.5313
74 31.5404 -16.2825 24.2329
0 30.9245 0.825166 13.0662
0 77.8631 -16.1979 37.5743
0 79.6569 -13.8934 36.3528
0 92.291 -19.1349 40.9157
0 76.2712 -8.27985 29.667
74 54.6221 -50.4016 51.3096
74 60.8413 -52.8497 57.2057
74 58.8074 -49.3552 51.0075
74 63.3467 -52.6092 56.2747
74 62.8571 -48.22 50.88
74 62.8243 -49.073 53.4542
0 64.4543 -48.4432 51.3858
74 62.5193 -45.526 50.9242
74 67.3219 -47.1593 51.0766
74 66.658 -43.609 48.412
74 66.6835 -44.4605 50.9678
74 66.1741 -40.8893 48.444
74 70.8177 -42.2374 48.4069
74 70.2417 -39.5981 48.434
74 70.2384 -38.7832 45.8679
74 33.5286 -17.6269 25.4896
74 34.6106 -20.1556 25.7476
74 71.9893 -36.4346 44.582
74 71.9793 -37.1802 47.1345
74 71.7236 -33.049 42.1882
74 71.3257 -33.8303 45.1525
0 85.6875 -30.1464 43.257
0 82.3917 -25.3989 39.1706
0 30.8347 1.69128 10.4668
0 73.345 -15.5486 32.1646
0 90.6991 -11.2169 33.0084
74 43.3591 14.5255 1.29561
0 61.6061 -77.0844 66.997
0 54.8466 -45.3509 43.1112
74 60.9675 -49.5596 49.6279
74 63.2999 -49.1224 46.14
74 67.6703 -48.2243 46.3614
74 67.7256 -49.0457 48.9937
74 69.651 -46.5012 47.1181
74 67.3004 -46.3749 48.4877
74 66.6488 -42.7874 45.8145
74 69.0389 -43.0223 44.5745
74 68.43 -40.3425 44.606
74 70.8128 -40.6335 43.2805
74 72.591 -38.2673 42.0183
74 72.5826 -39.0318 44.5678
0 -0.465643 -0.630948 1.13749
74 72.0263 -34.7965 39.6016
74 74.3027 -36.5943 43.2962
0 86.3488 -32.8062 43.3116
0 34.702 -4.8499 12.0085
0 70.2392 -21.085 29.4635
0 67.3248 -7.84734 21.447
0 81.0016 -7.25842 22.1344
74 41.3695 13.9722 -2.70736
0 76.5851 13.0312 8.80993
0 92.8067 12.3986 10.9298
0 78.5807 25.558 -1.54043
0 101.406 35.9369 -1.76185
0 124.309 24.9432 11.1303
0 53.3327 -58.8053 48.3174
74 54.6718 -49.4939 41.0264
74 58.9481 -49.385 43.61
74 60.8998 -47.8496 44.4774
74 65.2356 -46.8804 44.781
0 71.8193 -49.5094 47.885
74 72.0149 -45.8189 43.2356
74 69.6495 -45.6798 44.5943
74 68.9599 -41.3699 39.4587
74 68.9663 -42.2263 42.0073
74 70.7651 -38.9095 38.2297
74 70.7826 -39.8254 40.7083
74 74.8625 -37.5883 38.1144
74 74.8956 -38.3584 40.6748
74 72.1674 -33.9071 37.0375
74 76.4745 -35.0528 36.7262
0 69.0169 -25.1832 28.1403
0 32.7286 -5.4221 8.03125
0 59.1294 -10.9408 15.881
0 69.6002 -6.4705 15.0813
0 71.3939 -4.16607 13.8598
0 73.9387 -5.38759 15.2923
0 74.0285 -6.2537 17.8917
0 76.5733 -7.47522 19.3241
0 75.7324 -3.08315 14.0708
0 72.5264 0.798196 12.5837
0 78.5689 5.05166 8.97375
0 72.7282 11.0206 3.45486
0 25.4199 40.0598 -27.6374
0 102.728 30.6172 -1.65263
74 50.3805 -49.8638 38.4147
74 57.0665 -49.2237 37.2977
74 58.8083 -46.8996 35.9302
74 61.362 -48.8074 39.7248
74 65.6052 -47.0014 37.3672
74 65.6299 -47.8026 39.9648
74 70.0063 -46.8551 40.0512
74 69.4887 -43.2388 36.8942
74 72.0203 -45.0419 40.6257
74 73.6935 -41.7628 36.8855
74 71.3051 -41.6016 38.174
74 70.8279 -38.0461 35.6488
74 73.1041 -38.3646 34.4379
74 74.8555 -36.7702 35.5894
0 31.4165 -8.65413 4.10864
0 12.852 3.42243 -8.57255
0 12.9418 2.55632 -5.97318
0 56.6966 1.36931 2.72031
0 82.2343 -11.712 19.6443
0 73.0978 -0.99552 10.0389
0 74.8916 1.30891 8.81742
0 78.479 5.91778 6.37438
0 83.4788 4.34086 6.63993
0 106.382 -6.65279 19.5321
0 98.5798 19.2504 -0.478235
0 90.1943 26.4409 -7.42959
0 53.2311 -78.4456 56.2322
74 67.8743 -46.5738 33.7159
74 72.2677 -46.0069 35.9664
74 72.3537 -46.8466 38.5761
74 71.9685 -42.446 33.109
74 71.9343 -43.3548 35.5947
74 75.9859 -41.1343 32.9234
74 76.0483 -41.9571 35.4778
74 73.3651 -37.5174 31.8885
0 37.0776 -12.8909 4.42879
0 24.7351 1.70692 -6.6636
0 67.9066 -18.1928 15.0888
0 63.9496 -10.7855 10.9478
0 76.5837 -16.0269 15.5107
0 76.6735 -16.893 18.1101
0 78.3774 -13.7225 14.2892
0 86.1016 -18.2532 21.1859
0 82.8058 -13.5057 17.0995
0 74.3305 -5.44907 7.54878
0 74.4203 -6.31519 10.1482
0 86.3932 -8.89682 14.6565
0 77.918 -0.840204 5.10575
0 64.443 8.79333 -4.71053
0 66.9878 7.57181 -3.27807
0 69.5326 6.3503 -1.84561
0 77.167 2.68575 2.45177
0 79.7117 1.46423 3.88423
0 79.8015 0.598112 6.4836
0 84.8013 -0.978804 6.74915
0 68.7815 9.87625 -4.49959
0 71.3263 8.65473 -3.06713
0 81.5055 3.76866 2.66271
0 70.5753 12.1807 -5.7211
0 80.8442 6.42849 2.6081
0 83.2992 6.07309 1.44119
0 62.2797 18.5051 -10.0731
0 80.0932 9.95444 -0.0458741
0 90.1825 5.93449 3.08459
0 90.2723 5.06838 5.68396
0 94.6109 6.15129 5.8949
0 90.4742 15.2908 -3.44488
0 84.7233 20.3937 -6.36441
0 100.284 22.4209 -4.29912
0 59.845 -75.9859 50.0775
74 72.32 -45.0716 33.3299
74 72.0436 -41.7052 30.5927
74 74.3057 -42.037 29.1676
74 73.9617 -39.3683 29.3801
0 71.3145 -11.8517 7.44706
0 82.6262 -11.7735 11.9008
0 85.0811 -12.1289 10.7339
0 74.2407 -4.58295 4.94941
0 83.6688 -5.94307 8.02527
0 67.5593 5.7781 -5.82283
0 70.104 4.55658 -4.39037
0 70.1938 3.69046 -1.791
0 72.6488 3.33506 -2.95791
0 75.2834 1.24743 1.07392
0 77.8282 0.0259127 2.50638
0 80.373 -1.1956 3.93884
0 64.2634 10.5256 -9.90927
0 66.898 8.43793 -5.87744
0 69.353 8.08253 -7.04435
0 69.4428 7.21641 -4.44498
0 71.8978 6.86101 -5.61189
0 71.9876 5.9949 -3.01252
0 74.4426 5.6395 -4.17943
0 74.5324 4.77338 -1.58006
0 82.0769 1.97495 0.117949
0 58.4228 16.4945 -15.4282
0 71.1467 10.387 -8.26587
0 71.2365 9.52085 -5.6665
0 73.6915 9.16545 -6.83341
0 73.7813 8.29933 -4.23404
0 76.2363 7.94393 -5.40095
0 81.4157 4.63478 0.063341
0 83.9605 3.41326 1.4958
0 88.9602 1.83634 1.76135
0 70.4855 13.0468 -8.32047
0 72.9405 12.6914 -9.48738
0 73.0303 11.8253 -6.88801
0 75.4853 11.4699 -8.05492
0 75.5751 10.6038 -5.45555
0 78.03 10.2484 -6.62246
0 80.5748 9.02684 -5.19001
0 80.6646 8.16073 -2.59064
0 83.1196 7.80533 -3.75755
74 40.1639 32.854 -30.422
0 79.8238 12.5528 -7.84398
74 36.7967 37.2997 -34.3265
74 37.72 34.7541 -34.1267
74 40.1236 33.8086 -32.9719
74 42.628 32.5127 -31.4398
0 86.7969 11.5481 -3.60121
74 44.2508 34.817 -32.3715
0 80.8665 18.3832 -11.7195
0 83.4112 17.1617 -10.287
0 85.956 15.9401 -8.85456
0 91.0456 13.4971 -5.98964
0 85.205 19.4661 -11.5085
0 71.73 29.0996 -21.3248
0 87.0885 20.9044 -10.1307
0 94.7229 17.2399 -5.83331
0 88.8823 23.2088 -11.3522
0 48.6912 -12.008 -1.46037
0 81.8633 -28.7539 19.761
0 63.2987 -16.6773 7.07978
0 74.7224 -5.51055 -0.194719
0 79.9018 -8.8197 5.26957
0 63.882 2.03535 -5.97916
0 76.5161 -3.20612 -1.41624
0 68.2205 3.11826 -5.76822
0 70.6755 2.76286 -6.93513
0 70.7653 1.89675 -4.33576
0 73.2203 1.54135 -5.50267
0 91.0338 -7.00927 4.52454
0 93.6684 -9.0969 8.55637
0 69.9244 6.28881 -9.58911
0 70.0142 5.4227 -6.98974
0 72.4692 5.0673 -8.15665
0 72.559 4.20118 -5.55728
0 75.014 3.84578 -6.72419
0 64.0838 12.2578 -15.108
0 71.7182 8.59325 -10.8106
0 71.808 7.72713 -8.21126
0 74.263 7.37173 -9.37817
0 74.3528 6.50561 -6.7788
0 76.8078 6.15021 -7.94571
0 84.5319 1.61955 -1.04896
0 89.5317 0.0426286 -0.783413
0 63.4226 14.9176 -15.1626
0 65.8775 14.5622 -16.3295
0 65.9674 13.6961 -13.7302
0 68.4223 13.3407 -14.8971
0 73.6017 10.0316 -9.43278
0 76.0567 9.67616 -10.5997
0 76.1465 8.81005 -8.00032
0 78.6015 8.45465 -9.16723
0 81.2361 6.36701 -5.1354
0 86.3257 3.92398 -2.27048
74 40.7242 30.2083 -30.2446
0 70.2161 15.6451 -16.1186
0 77.8504 11.9806 -11.8212
0 77.9402 11.1145 -9.22183
0 80.3952 10.7591 -10.3887
0 80.485 9.89296 -7.78938
74 43.3146 29.8584 -31.0636
0 87.3683 9.75436 -6.14597
0 89.9131 8.53284 -4.71352
0 94.9129 6.95593 -4.44797
74 36.7832 38.1039 -36.9308
74 37.6751 35.4889 -36.7366
74 41.7085 36.8048 -36.5522
74 40.1384 34.6197 -35.5221
74 45.1201 32.1321 -32.3047
74 47.6171 31.0005 -30.7368
0 66.1692 23.9186 -22.859
0 91.7069 10.8373 -5.93503
0 96.7964 8.39424 -3.07012
74 38.4901 41.361 -40.6201
74 39.223 38.7728 -40.5338
74 44.2258 35.71 -35.0505
0 83.3214 18.0278 -12.8864
0 90.866 15.2293 -11.1884
0 93.5006 13.1417 -7.15655
74 38.6644 42.3193 -43.226
74 42.5047 42.541 -40.1403
74 43.3064 39.9267 -40.0652
74 45.5945 38.9995 -38.6218
74 48.3307 37.8363 -37.2109
0 90.2048 17.8892 -11.243
74 37.9187 44.92 -43.356
74 44.2636 44.9709 -41.5125
74 44.9817 42.3474 -41.307
0 99.5431 17.3952 -10.7665
74 42.0712 46.1474 -42.8755
74 118.735 13.2682 -0.919459
74 117.911 17.5781 -5.76657
74 120.553 16.2902 -4.56602
74 124.574 17.2705 -4.44131
0 53.3994 -22.9413 5.33465
0 47.5588 -16.9723 -0.184241
0 83.769 -15.3609 6.81124
0 71.2469 0.969147 -9.47989
0 73.7917 -0.25237 -8.04744
0 60.3167 9.38116 -17.8637
0 62.9513 7.29353 -13.8319
0 65.4063 6.93813 -14.9988
0 70.4959 4.4951 -12.1339
0 70.5857 3.62898 -9.5345
0 73.0407 3.27358 -10.7014
0 73.1305 2.40746 -8.10204
0 80.7648 -1.25709 -3.80467
0 44.297 20.2362 -29.1124
0 69.8346 7.15493 -12.1885
0 72.2896 6.79953 -13.3554
0 72.3794 5.93341 -10.756
0 74.8344 5.57801 -11.9229
0 74.9242 4.7119 -9.32356
0 63.994 13.1239 -17.7074
0 66.5388 11.9024 -16.2749
0 74.1732 8.23785 -11.9775
0 76.6281 7.88245 -13.1444
0 76.7179 7.01633 -10.5451
0 79.1729 6.66093 -11.712
0 73.3323 12.6299 -17.2309
0 73.4221 11.7638 -14.6315
0 78.5117 9.32076 -11.7666
0 81.0565 8.09924 -10.3341
74 48.0504 28.2569 -30.9274
0 70.0365 17.3774 -21.3173
0 75.126 14.9343 -18.4524
0 77.6708 13.7128 -17.0199
0 76.9198 17.2388 -19.6739
0 92.2783 9.04356 -8.4798
74 41.5135 37.8134 -39.1167
74 44.0609 36.4915 -37.6546
0 83.8031 17.1002 -18.0305
0 86.4377 15.0125 -13.9987
0 94.072 11.348 -9.70131
74 46.5335 37.1821 -41.1295
0 98.4106 12.4309 -9.49037
74 45.8348 39.782 -41.2326
0 84.8458 22.9306 -21.906
0 87.3906 21.709 -20.4736
74 113.059 9.75083 -7.2312
74 40.0841 45.7615 -46.8061
0 91.8189 21.9258 -17.6632
74 117.416 10.1416 -4.68982
74 116.743 12.8402 -4.76803
74 118.804 13.0009 -8.47288
74 121.39 11.6795 -7.12844
74 120.619 15.395 -9.62816
74 123.219 14.2076 -8.302
74 122.592 17.5347 -10.8789
74 125.13 16.351 -9.43976
74 127.008 17.192 -5.89334
74 131.039 19.7329 -10.4218
74 -7.57349 17.9871 -42.3309
0 75.6634 -19.3204 3.8446
0 53.2538 11.252 -24.7058
0 58.4332 7.94285 -19.2416
0 62.6819 9.89188 -21.63
0 65.2267 8.67036 -20.1975
0 83.13 -0.746371 -7.57095
0 64.4757 12.1963 -22.8515
0 67.0204 10.9748 -21.419
0 72.11 8.53176 -18.5541
0 74.7446 6.44413 -14.5223
0 82.379 2.77958 -10.2249
0 84.9238 1.55806 -8.79246
0 90.0133 -0.884971 -5.92754
0 61.1798 16.9438 -26.9379
0 63.8144 14.8561 -22.9061
0 66.2694 14.5007 -24.073
0 66.3592 13.6346 -21.4737
0 73.9038 10.8362 -19.7756
0 73.9936 9.97008 -17.1763
0 76.4485 9.61468 -18.3432
0 73.2425 13.496 -19.8303
0 75.6975 13.1406 -20.9972
0 75.7873 12.2745 -18.3978
0 78.2423 11.9191 -19.5647
0 80.8769 9.83148 -15.5329
0 85.8766 8.25456 -15.2673
0 72.4915 17.022 -22.4842
0 77.4912 15.4451 -22.2187
0 77.581 14.5789 -19.6193
0 87.6704 10.559 -16.4888
0 81.9196 15.6619 -19.4084
0 84.3745 15.3065 -20.5753
0 81.0787 20.0539 -24.6617
0 81.1685 19.1878 -22.0623
74 116.352 5.99779 -6.1265
74 115.245 9.39881 -8.69564
74 117.883 8.16456 -7.30035
0 81.4601 28.5441 -28.5918
0 84.0049 27.3226 -27.1594
74 119.781 9.59429 -5.93936
74 122.151 9.08161 -7.09614
74 124.076 10.5778 -5.81922
74 126.523 10.416 -6.84424
74 125.5 14.6298 -12.0314
0 62.2107 2.26778 -20.2993
0 64.8453 0.180148 -16.2674
0 59.0046 6.14913 -21.7863
0 42.9849 17.0042 -33.0351
0 47.3234 18.0871 -32.8241
0 54.868 15.2887 -31.1261
0 65.1369 9.53648 -22.7969
0 72.6815 6.73805 -21.0989
0 72.7713 5.87193 -18.4995
0 64.3859 13.0624 -25.4509
0 66.9306 11.8409 -24.0184
0 69.4754 10.6194 -22.586
0 74.565 8.17636 -19.721
0 76.3587 10.4808 -20.9426
0 83.9931 6.81625 -16.6452
0 86.4481 6.46084 -17.8121
74 101.912 -0.237765 -10.4573
0 85.7868 9.12068 -17.8667
0 88.2418 8.76528 -19.0336
74 101.137 2.32441 -10.7386
0 87.5806 11.4251 -19.0882
74 105.26 3.99599 -12.9213
74 106.884 6.1471 -13.9311
74 109.742 4.37652 -10.2074
74 112.427 3.19313 -8.8452
74 104.13 9.50686 -13.4385
74 113.737 6.00588 -12.4399
0 90.417 19.5599 -24.1852
74 118.283 6.23701 -9.84237
74 120.822 6.19384 -10.8502
0 97.3003 19.4213 -22.5418
74 120.264 7.67556 -8.47594
74 122.72 7.63498 -9.49542
74 125.06 7.0411 -10.6625
0 96.4595 23.8134 -27.7952
74 124.331 9.63378 -10.7247
74 126.865 9.31764 -11.846
74 128.75 10.8655 -10.53
74 128.084 13.4935 -10.6765
74 130.743 12.3546 -9.38081
74 127.113 17.9115 -15.7179
74 129.779 16.71 -14.2949
74 128.936 20.2445 -16.912
0 69.0042 2.9953 -21.2552
0 81.6383 -2.24617 -16.6923
0 60.6188 10.1858 -28.2066
0 65.6186 8.60888 -27.941
0 59.8677 13.7117 -30.8606
74 103.187 -6.20103 -7.58374
74 105.566 -7.2906 -6.51345
74 100.269 -2.54764 -9.30788
74 102.809 -2.80452 -10.5015
74 105.21 -3.92971 -8.89964
74 109.972 -6.40296 -6.13077
74 104.358 -0.741302 -11.7291
74 107.038 -1.77775 -10.267
74 109.501 -3.0424 -8.76935
74 112.069 -3.61169 -9.93068
74 116.875 -6.04155 -7.06104
0 80.5177 13.2959 -25.9304
0 83.0625 12.0744 -24.4979
0 93.2416 7.18836 -18.7681
74 103.535 2.47946 -14.4034
74 105.963 2.05378 -15.5676
74 108.558 0.836033 -14.1618
74 111.338 -0.926324 -10.0924
74 107.974 2.82147 -11.6179
74 110.586 1.6927 -10.1749
74 112.996 1.31935 -11.3371
74 115.553 0.111168 -9.89412
74 114.857 2.69881 -9.95846
74 117.507 1.47337 -8.61641
74 119.722 2.158 -12.1597
74 119.065 3.6544 -9.79048
74 121.598 3.59981 -10.8512
74 123.96 3.0766 -12.0051
74 123.162 5.63248 -12.0346
74 125.844 4.49822 -10.6535
74 128.3 4.4955 -11.7065
74 130.277 5.76277 -10.4349
74 129.21 8.15726 -10.5616
74 131.694 8.03536 -11.6713
0 102.412 28.933 -34.0045
74 148.074 28.6586 -22.4629
0 44.4974 1.40058 -31.5405
0 60.8088 -0.0981351 -26.8212
0 61.9413 4.86613 -28.0974
0 64.4861 3.64461 -26.6649
0 69.4858 2.0677 -26.3994
0 70.6183 7.03196 -27.6755
0 73.1631 5.81045 -26.243
0 74.9569 8.11488 -27.4645
74 108.037 -7.07536 -9.9966
0 86.9297 5.53325 -22.9562
0 91.9295 3.95633 -22.6907
74 107.561 -3.9307 -12.6561
74 114.932 -7.31304 -8.37761
74 114.566 -3.79534 -11.1145
74 119.324 -5.44518 -10.8406
74 113.754 -1.29901 -11.2787
74 116.49 -2.38416 -9.77271
74 118.838 -2.88975 -11.0858
74 121.417 -4.00564 -9.61241
74 120.617 -1.43455 -9.57934
74 122.94 -1.00847 -13.2779
74 122.421 1.05313 -10.7847
74 124.788 0.495921 -11.9418
74 126.448 3.02734 -13.0179
74 128.816 2.59158 -14.2076
74 130.335 4.80975 -15.5118
74 132.154 6.16039 -14.1794
74 134.013 7.63151 -12.816
74 136.577 8.21864 -16.399
0 102.984 27.1393 -36.5493
74 133.449 11.16 -15.5266
74 141.571 27.6736 -25.5603
0 49.4074 0.689782 -33.8743
0 51.2011 2.99422 -35.0958
0 62.4229 3.93853 -33.2415
0 72.6919 -1.81365 -24.9123
0 43.9482 15.149 -43.3233
0 59.2169 7.81988 -34.7286
0 69.3062 3.79993 -31.5981
0 62.8044 12.4287 -37.1716
0 82.4116 6.18256 -28.3659
0 79.1158 10.93 -32.4523
0 81.6606 9.70851 -31.0199
74 122.156 -9.31226 -9.57219
74 124.094 -6.94863 -10.6397
74 125.126 -0.397147 -16.8716
74 127.041 1.09309 -15.5353
74 131.046 2.21208 -15.6053
74 132.737 5.43498 -19.235
74 135.174 4.00192 -17.8643
74 134.507 5.88211 -15.4067
74 137.151 6.27079 -18.8458
74 139.088 7.65522 -17.4924
74 140.752 21.4788 -26.8742
0 33.0061 3.05462 -41.1929
0 73.555 5.74896 -33.9865
74 124.556 -7.87208 -15.603
74 127.103 -9.17831 -14.0756
74 126.449 -5.68002 -16.8241
74 107.402 8.10338 -31.6146
74 112.497 5.86713 -29.1326
74 104.003 12.8683 -35.0388
74 105.762 15.2274 -36.2559
74 108.359 13.9848 -35.0351
74 110.929 12.7811 -33.6978
74 113.523 11.4786 -32.6286
74 133.408 3.54306 -21.7893
74 106.933 20.1123 -37.3629
74 109.296 19.8347 -38.6679
74 112.021 17.6883 -35.0285
0 38.5774 -0.316016 -43.4722
0 51.3013 -6.4236 -36.3099
74 53.181 6.35997 -44.1031
74 125.337 -10.4841 -15.7816
74 103.798 4.29115 -31.7494
74 103.047 7.83028 -33.9549
74 105.734 5.69521 -30.4875
74 108.208 4.70368 -29.4346
74 102.276 11.2864 -36.4726
74 104.97 9.24237 -32.6138
74 109.944 6.79419 -30.3534
74 114.962 5.24813 -30.2324
0 123.061 -0.540907 -22.3735
74 101.615 14.5953 -39.0562
74 104.017 13.6883 -37.5949
74 106.672 11.6189 -33.8514
74 109.256 10.39 -32.674
74 111.717 9.12185 -31.6723
74 102.605 20.6296 -42.8955
74 105.768 16.0843 -38.845
74 110.735 13.6613 -36.2171
74 115.161 14.5609 -36.1201
0 46.7832 -5.77428 -41.7195
74 54.3429 2.50502 -46.5742
74 53.5776 6.01969 -49.1834
74 55.7069 6.00767 -45.2366
74 54.8924 9.62038 -47.8357
74 61.7118 11.4537 -51.4537
74 102.44 0.286495 -33.081
74 101.829 3.89038 -35.5704
74 101.078 7.6224 -37.9345
74 104.054 14.4594 -40.1645
74 105.649 17.7528 -44.089
74 62.5846 -46.9384 -11.8957
74 25.3636 -6.89617 -48.4372
74 27.4402 -5.52614 -47.3166
0 64.0475 -0.576502 -43.4752
74 56.0869 5.54367 -50.3393
74 58.5922 4.19499 -48.8261
74 57.169 10.0433 -51.6801
0 72.1635 -5.16865 -44.3219
74 60.4152 6.97297 -52.5684
74 59.4359 10.7002 -55.2585
0 63.105 -15.8247 -40.8137
0 67.6453 -4.51933 -49.7316
74 136.223 -15.6992 -25.2218
74 135.46 -12.2073 -27.8013
74 145.029 -22.9112 -26.2561
