ITEM: TIME
40.0
ITEM: TIMESTEP
0
ITEM: NUMBER OF ATOMS
396
ITEM: BOX BOUNDS pp pp pp
-300.694 300.694
-300.694 300.694
-300.694 300.694
ITEM: ATOMS type x y z
74 125.369 184.106 0.328183
0 95.5788 169.09 3.67736
0 126.287 176.944 0.976063
0 119.38 170.144 4.68567
74 104.782 165.063 13.3144
0 124.51 165.866 2.34439
0 121.194 171.508 12.5901
74 117.055 169.23 18.177
74 114.888 172.727 21.007
74 113.955 166.004 21.2393
0 125.207 163.008 11.2336
74 115.711 167.504 19.6692
74 113.819 168.657 21.9756
0 126.782 164.595 9.64748
74 117.971 169.495 20.7855
74 86.9652 153.506 25.0566
74 173.707 144.835 -27.6223
74 164.708 137.581 -28.2412
74 153.78 149.158 -9.64341
0 129.513 160.688 16.3493
74 153.941 152.191 -6.41065
0 153.184 146.749 3.81196
0 157.381 159.645 12.9828
0 171.762 155.394 0.907152
0 173.683 127.448 -25.1354
0 174.288 127.902 -22.5006
0 168.023 139.863 -8.86499
74 192.931 130.589 -30.3984
74 193.054 133.694 -27.4141
0 162.822 149.642 6.80415
0 167.2 141.82 -1.40801
0 161.099 144.967 5.15416
0 169.527 146.951 2.87677
0 170.279 150.495 8.74765
0 172.46 152.536 9.79634
0 168.392 154.633 14.1711
0 168.72 137.005 0.0242013
0 171.048 142.135 4.30898
0 179.329 141.03 -1.2045
0 174.657 142.673 0.535489
74 150.682 108.052 -17.9614
0 163.389 131.791 2.14771
74 154.22 143.846 18.8903
74 151.041 143.418 22.2884
74 145.202 148.377 28.5258
74 157.023 143.593 19.2619
74 154.905 144.59 21.376
74 151.654 147.527 21.7628
0 170.077 141.004 8.52988
0 173.686 141.541 4.75638
74 157.368 140.824 18.7521
74 152.983 145.448 23.6995
74 150.816 146.301 25.8966
74 156.772 146.333 22.6258
74 153.58 145.936 26.2908
74 164.037 122.945 1.13556
74 168.24 123.947 0.246954
74 172.275 124.997 -0.934915
0 171.909 130.463 6.12471
74 148.83 140.4 27.5816
0 169.418 134.147 8.91339
0 170.022 134.602 11.5482
0 191.933 125.701 -11.9118
0 173.632 135.139 7.77469
74 146.106 58.8739 -51.3042
74 169.73 119.396 1.32645
0 168.758 127.291 9.29691
0 162.804 133.526 19.0952
0 146.078 144.551 37.1956
74 81.8589 39.6988 -33.1741
74 -1.26614 -6.36858 -28.8431
74 -0.677779 -4.2128 -29.3411
74 162.858 94.3074 -2.05054
74 163.494 91.745 -2.7899
74 165.618 93.8623 -1.79635
74 167.541 95.3919 -0.624923
74 166.735 94.6831 3.69838
74 170.798 95.4105 2.24966
74 171.492 95.7262 4.90993
74 170.177 97.9472 2.94086
74 171.014 98.4023 5.5403
0 15.8515 -5.4644 -21.1098
0 178.778 90.9379 -2.89466
0 11.1247 -10.2234 -16.3515
74 38.0175 0.265429 -18.0589
74 37.6002 5.82944 -14.0529
74 35.5238 6.70985 -11.7838
74 41.5023 6.76449 -15.4448
74 39.6235 7.7196 -13.1867
74 33.8051 7.99466 -10.091
0 152.834 78.1288 4.32104
0 13.6162 -13.9071 -19.1402
0 5.77598 -3.53317 -3.91842
0 4.34736 -2.02994 0.903763
74 26.8734 -10.304 -23.1411
74 37.1134 -1.02116 -13.8797
74 41.2098 0.0859036 -15.1743
74 39.3114 1.06703 -12.7955
74 36.7504 1.63045 -13.3487
74 39.3918 4.12954 -9.61051
74 39.0635 6.74582 -8.95544
74 93.1309 3.209 -38.9653
74 92.6692 5.05503 -40.8424
74 111.44 19.7717 -32.5818
74 111.572 22.6864 -29.5143
0 124.668 30.8801 -26.695
0 185.576 84.934 -0.567646
74 42.8795 4.17863 -6.58668
74 44.7478 5.97962 -5.51271
74 43.3738 8.06592 -7.54022
74 42.7013 7.19866 -3.37463
74 46.1524 10.4729 -4.04884
0 71.9361 5.02999 -24.3889
74 90.0516 2.27125 -35.1808
0 128.059 33.8299 -20.3767
0 162.636 72.2079 0.239771
0 164.963 77.3383 4.52455
0 184.588 95.7059 13.9628
0 7.46074 -17.1628 -9.55967
74 43.8754 5.05084 -1.34959
74 44.1311 8.11758 1.71919
74 78.3344 -2.53197 -29.7587
74 86.8846 -3.46016 -32.5815
74 84.0824 -0.0838309 -32.1314
74 87.093 -0.437128 -29.3689
74 90.5723 0.435458 -33.2928
74 88.741 1.12859 -30.9255
74 86.7161 2.25153 -28.6298
74 88.4353 3.74061 -30.2252
0 101.657 23.6558 -12.5597
0 128.974 28.5599 -21.5793
0 128.664 34.2845 -17.7419
0 45.3154 -2.73187 -6.48009
74 80.6971 -9.26661 -35.5833
74 75.1686 -5.82314 -26.7213
74 84.9122 -8.49834 -36.7135
74 87.9574 -8.61728 -33.6666
74 83.4683 -6.83507 -31.9343
74 83.8162 -6.5202 -29.2781
74 79.2682 -4.74087 -27.5427
74 77.3818 -3.79634 -25.6512
74 87.4205 -6.03016 -33.1409
74 85.3683 -5.01105 -30.881
74 83.7026 -3.57491 -26.0301
74 87.5611 -3.02682 -30.0169
0 154.464 58.0972 1.6981
0 31.6855 5.06362 11.4664
74 80.6423 -12.3538 -29.5098
74 78.5455 -11.3838 -27.3055
74 79.8483 -10.4967 -31.4194
74 77.7024 -9.44779 -29.225
74 80.7373 -9.48762 -26.1051
74 73.5468 -7.40455 -25.2067
74 74.2725 -6.98928 -22.6235
74 84.0096 -9.38999 -32.5557
74 84.2732 -9.178 -29.8542
74 79.7994 -7.28215 -28.1356
74 75.8328 -5.38941 -24.1094
74 76.4561 -4.84303 -21.4997
74 74.7235 -3.58024 -19.7429
74 74.6048 -3.66127 -16.4141
74 78.0211 -3.34263 -23.04
74 77.9473 -3.00599 -19.9103
74 74.3469 -0.964895 -19.212
74 76.6779 -1.46551 -15.3978
0 88.5187 5.0089 -15.8336
74 78.9246 -14.0207 -28.0225
74 76.8154 -10.5864 -25.1513
74 77.1105 -7.0668 -19.1421
74 74.9507 -6.26366 -16.8133
74 72.7321 -4.58403 -14.4839
74 125.955 27.9948 -7.22345
0 184.625 85.9917 23.2355
74 224.095 80.7531 -2.30367
74 192.637 149.424 90.5999
74 19.5063 0.698099 24.1257
0 57.226 -1.11005 3.81519
0 101.547 10.8521 -6.52309
74 163.41 50.6785 5.14778
0 81.3926 0.621366 -2.03219
0 81.0817 6.34595 1.80519
0 83.8671 8.8413 5.48868
0 128.041 17.7139 -8.08569
74 164.401 48.5583 7.36396
74 168.057 51.8274 6.60543
74 165.357 52.3591 6.38748
0 65.8932 0.651436 11.0283
0 83.7371 -6.15193 -8.05696
0 86.5225 -3.65657 -4.37347
0 80.5689 2.57911 5.42479
0 82.1445 4.16543 3.83869
0 85.0769 9.75034 10.7583
0 175.459 26.4468 -18.5779
74 162.078 46.4976 6.35955
74 166.933 47.7262 7.76795
74 169.04 49.5466 8.61233
74 167.177 50.9623 10.8015
74 167.842 51.4241 13.4338
74 173.974 61.57 18.6255
0 76.6828 -16.0413 -7.58343
0 81.3378 -5.7805 0.986125
0 82.9134 -4.19418 -0.599975
0 79.4512 -1.64224 6.4096
0 76.8128 -1.04805 5.9622
0 73.3506 1.50389 12.9718
0 71.3171 2.5526 15.1592
0 93.2281 -6.34818 -8.30085
0 81.6318 0.398599 7.4583
0 89.9129 -0.706693 1.94482
0 87.4214 2.97705 4.7335
0 85.3879 4.02576 6.92089
0 83.9592 5.52899 11.7431
0 85.5348 7.11531 10.157
0 88.0093 15.3352 17.6778
74 114.923 6.33186 -4.55328
74 112.819 4.91646 -5.51101
0 96.8954 14.6845 14.7992
74 117.091 8.42017 -3.64427
74 115.097 9.49277 -1.41759
74 119.306 10.3971 -2.52498
74 160.961 42.3003 7.50979
0 175.076 37.6732 -1.41262
74 163.642 41.9766 7.91863
74 163.133 44.4827 8.58733
74 166.4 44.373 11.62
74 168.184 48.7789 12.9707
74 168.833 49.3096 15.5235
74 170.974 51.0156 16.4187
74 168.487 51.992 16.0283
74 174.514 54.6563 15.9654
74 170.513 53.6997 16.9998
74 171.178 54.34 19.5861
74 177.095 58.3908 18.6207
74 179.378 60.9358 22.4089
0 79.7792 -19.2705 -7.73732
0 77.2877 -15.5868 -4.94864
0 67.561 -1.07456 15.6966
0 82.5476 -4.87146 6.25571
0 86.1568 -4.33385 2.48222
0 90.9757 -2.88721 3.97832
0 88.3373 -2.29301 3.53092
0 82.2367 0.853117 10.0931
0 90.8117 5.92692 11.0518
0 93.5972 8.42228 14.7353
74 117.767 8.71071 -1.00313
74 163.849 39.2247 7.35238
0 181.634 31.892 -8.57609
74 164.184 42.3635 10.6631
74 166.891 41.7075 11.0602
74 171.123 45.1982 12.796
74 169.228 46.6971 15.067
74 169.878 47.1472 17.6416
74 174.053 47.8458 16.4319
74 171.954 48.9277 18.5575
74 176.133 50.167 17.3893
74 180.221 61.3843 25.0282
74 181.078 68.1367 34.2111
74 192.859 130.881 92.7485
0 82.8586 -10.596 2.41834
0 85.791 -5.01114 9.33791
0 83.7574 -3.96243 11.5253
0 111.516 10.2103 12.214
0 159.316 7.71679 -15.4434
74 167.73 39.4446 13.0628
74 169.903 41.5192 13.9821
74 165.68 40.8776 15.0554
0 193.764 31.1016 -8.37258
74 170.161 44.5265 17.0777
0 82.0349 -8.6383 9.87532
0 86.8538 -7.19165 11.3714
0 84.2154 -6.59746 10.924
0 90.463 -6.65404 7.59792
0 92.6435 -4.6132 8.64661
0 86.5429 -1.46707 15.2088
0 83.2277 4.17442 25.4545
0 93.5424 2.02041 17.7536
0 95.118 3.60674 16.1675
0 101.513 6.6397 16.0775
0 97.5924 11.8267 23.6883
0 175.479 28.6363 1.0044
74 167.42 35.896 16.1318
74 170.485 41.9337 16.5274
74 171.13 42.2707 19.1553
74 173.834 41.8477 19.4297
0 224.602 53.9487 2.47176
0 89.9502 -10.4209 11.2175
0 87.6057 -3.64759 17.2423
0 83.5387 -1.55016 21.6171
0 182.054 10.9514 -16.4686
0 182.495 20.2201 -6.76036
74 167.84 33.1236 15.7944
0 178.869 31.5862 7.32268
0 191.364 31.473 0.6705
0 186.016 38.1632 13.1036
0 184.129 42.3015 18.527
0 201.973 35.4981 -0.558202
74 238.331 50.7958 -2.35485
74 196.885 98.5725 70.93
0 97.8486 -0.299773 22.8693
0 93.7815 1.79765 27.2441
0 198.822 32.3254 2.614
0 199.427 32.78 5.24879
0 203.036 33.3176 1.4753
0 93.8155 -22.0097 6.62497
0 97.5716 -18.3826 6.08756
0 94.2564 -12.7411 16.3332
0 89.5844 -11.0982 18.0732
0 90.1894 -10.6436 20.708
0 100.34 -3.98352 20.0806
0 109.062 4.17984 24.2754
0 172.731 16.4267 6.59362
0 197.998 34.2832 10.071
0 196.569 35.7864 14.8932
0 202.817 35.7298 11.5671
0 220.808 32.016 -4.28207
0 90.6473 -13.2787 20.1067
74 129.172 24.0538 44.0393
0 177.697 20.9629 11.3258
0 183.944 20.9064 7.99971
0 192.83 20.2556 5.12102
0 195.011 22.2964 6.16972
0 188.91 25.4426 12.7319
0 201.258 22.2398 2.84363
0 207.653 25.2728 2.75362
0 205.015 25.867 2.30622
0 206.06 35.5902 14.6493
0 220.442 31.3387 2.57362
74 143.192 -14.5317 -2.74057
0 201.569 16.5153 -0.99375
0 210.455 15.8645 -3.87244
0 193.582 23.7997 10.9919
0 195.763 25.8405 12.0406
0 167.18 13.6255 18.8089
0 182.15 21.7323 19.6776
0 197.284 21.0249 13.4728
0 194.792 24.7087 16.2615
0 153.584 -2.38635 16.1363
0 185.704 15.868 18.9224
0 181.032 17.5109 20.6624
0 193.527 17.3978 14.0102
0 190.212 23.0393 24.2559
0 204.577 30.6915 22.4898
74 207.79 48.4156 40.8133
0 89.403 -18.4001 37.4377
0 186.015 10.1435 15.085
0 188.196 12.1843 16.1337
0 188.49 18.3634 22.6059
0 187.061 19.8666 27.4281
0 199.556 19.7535 20.7759
74 188.05 -7.86343 1.23398
0 172.86 3.40024 22.1207
0 174.583 8.07611 23.7707
0 193.62 14.0855 20.2646
0 222.988 6.03714 -1.25191
0 222.824 14.8513 5.82156
74 189.617 36.839 48.2434
0 211.703 7.05934 10.6699
0 172.641 5.81251 32.2125
0 181.528 5.16173 29.3338
0 202.01 -2.23582 10.696
0 190.103 10.2355 30.2925
0 175.263 17.122 42.9694
0 207.946 3.43218 11.2073
0 196.35 10.179 26.9664
0 185.578 14.968 35.2686
74 227.815 17.1162 17.121
74 153.907 5.4857 50.2216
74 222.793 12.8547 22.0521
74 220.925 13.7851 23.9513
74 230.997 11.5661 16.5572
74 228.923 12.5545 18.7453
74 226.342 13.2993 18.3492
74 227.073 13.7135 21.0364
74 224.52 14.2325 20.3792
74 223.173 15.7888 24.9858
74 157.063 5.31397 53.1277
0 187.573 -4.38627 25.7899
0 199.611 -1.8644 19.7391
74 217.755 10.9381 27.2345
74 219.863 12.6415 28.2369
74 217.833 13.776 30.3813
74 225.35 12.0178 22.4541
74 226.087 12.7597 24.9315
74 221.606 14.1667 26.6525
74 229.704 13.3036 21.2027
0 183.598 -5.60116 36.4191
0 210.769 -3.78665 24.1635
74 199.248 4.34218 49.713
74 201.967 3.39303 49.985
74 201.915 6.45384 53.282
0 231.62 -24.4335 30.5432
74 220.84 -15.4672 42.3166
0 238.015 -21.4005 30.4532
74 213.45 -19.6183 46.6437
0 231.254 -25.1108 37.3989
74 244.276 -25.1174 36.7555
