ITEM: TIME
40.0
ITEM: TIMESTEP
0
ITEM: NUMBER OF ATOMS
1388
ITEM: BOX BOUNDS pp pp pp
-269.042 269.042
-269.042 269.042
-269.042 269.042
ITEM: ATOMS type x y z
74 20.1575 -4.41176 -125.893
74 13.637 -4.07971 -115.972
0 26.8437 -5.03339 -123.567
74 33.7311 -16.309 -119.777
74 41.7709 -9.87266 -116.196
74 28.1586 -36.441 -93.8943
74 35.3351 -32.2664 -95.8303
74 32.7692 -32.8671 -96.4689
74 42.3505 -22.9896 -94.6982
74 41.2946 -24.4847 -92.735
74 42.4951 -21.6746 -92.1668
0 34.8791 -50.2722 -94.8902
0 26.3798 -30.4789 -82.8603
0 40.173 -29.3654 -88.8996
0 52.4859 -25.9452 -94.9907
0 47.0574 -38.0721 -93.0328
0 41.1547 -17.684 -80.3553
0 49.8835 -33.9058 -84.9805
74 47.4025 32.7375 -56.8866
0 50.899 -50.7214 -89.0802
0 36.6073 -37.8466 -74.5487
0 40.1671 -36.7313 -78.2418
0 48.8437 -35.6169 -83.108
74 75.3069 -26.9385 -94.6206
0 42.9167 -33.7555 -72.6578
0 49.3268 -9.94723 -66.0714
0 38.8921 -49.3797 -73.1162
0 41.5893 -29.0677 -67.7732
0 41.2011 -42.3861 -69.4566
0 54.4192 -28.4749 -69.4717
0 51.8226 -29.0696 -70.1193
0 53.2022 -51.0936 -74.7628
0 49.2783 -47.0006 -70.5258
0 40.0267 -35.3173 -59.6355
0 90.107 -12.3358 -80.3923
0 43.0212 -68.4279 -72.1757
0 45.1434 -35.3182 -60.8086
0 54.3707 -65.5282 -73.9261
74 88.2589 12.3555 -59.1229
0 63.6311 -19.027 -57.0603
74 83.7617 -4.52868 -59.9784
74 82.5653 7.01712 -54.4962
74 83.7075 8.58535 -56.3726
74 83.752 9.5927 -53.9092
74 92.1357 10.5473 -58.4553
74 84.8658 10.2288 -58.1661
74 82.28 10.8503 -56.5105
74 90.7458 14.11 -56.1476
74 83.3464 15.9078 -50.8184
74 70.8739 16.9649 -47.1839
74 74.6584 18.8762 -48.3838
74 77.1381 20.5425 -45.069
74 70.7121 23.1335 -44.1493
74 50.2069 39.6807 -19.5408
74 47.8352 40.2075 -17.9078
74 45.1526 39.6068 -18.5914
74 53.56 41.8031 -20.8915
74 40.3441 -30.6215 -42.7254
74 44.9284 -25.9726 -43.4032
74 40.0066 -26.083 -42.185
74 47.2071 -26.2626 -45.1816
74 81.793 -8.9197 -58.8541
74 81.7326 -7.92945 -56.1993
74 84.942 -1.88948 -59.5295
74 83.7489 -3.35207 -57.5781
74 85.6367 0.706111 -59.3933
74 87.9012 1.73321 -56.0652
74 84.4903 -0.741998 -57.2024
74 85.409 2.53057 -54.2406
74 89.1116 3.22105 -57.9207
74 89.0181 4.23727 -55.3485
74 84 4.78646 -54.3454
74 84.0455 5.79457 -51.7948
74 81.6792 6.34201 -50.2591
74 87.7024 5.60852 -57.936
74 85.15 6.35276 -56.2342
74 80.1488 7.55555 -52.7892
74 82.7377 9.29783 -49.5294
74 93.7519 8.44484 -58.2624
74 88.7819 8.48211 -57.1518
74 81.3438 10.4946 -52.1552
74 83.9265 11.8631 -49.014
74 76.3409 11.7185 -48.7369
74 84.9113 12.5169 -53.2022
74 79.9129 13.8101 -49.7757
74 82.5453 15.3895 -46.6241
74 80.0232 16.1044 -44.8495
74 77.5334 16.3928 -43.274
74 75.0726 17.1731 -41.4653
74 69.9483 18.7082 -37.8296
74 85.8955 17.6795 -47.5574
74 78.635 19.3988 -42.5007
74 76.2138 19.8629 -40.9547
74 68.4663 19.8196 -40.418
74 66.0457 20.2639 -38.7371
74 68.5834 22.0323 -35.4831
74 72.1709 21.7841 -41.6441
74 69.6317 22.5575 -39.8327
74 72.3517 24.016 -36.791
74 75.9375 25.0353 -40.4412
74 73.4801 25.7638 -38.6668
74 68.3772 27.2193 -35.077
74 48.1938 36.2964 -15.7979
74 73.5392 33.5338 -33.4954
74 51.8983 38.4772 -17.0144
74 49.2498 37.9408 -17.6316
74 46.7194 38.5602 -15.961
74 44.1795 39.325 -14.1461
74 72.6504 36.9025 -31.1705
74 57.7349 40.2115 -20.0043
74 55.1499 39.5655 -20.7333
74 53.1302 41.3876 -16.5797
74 71.2437 40.0829 -28.5083
74 68.7966 40.6042 -26.6187
74 58.8705 41.5929 -21.9461
74 72.2299 41.87 -30.3927
74 69.9886 43.6257 -26.3261
74 67.4361 42.9461 -26.7039
74 66.0336 45.3862 -26.512
74 45.5764 -29.8756 -41.4089
74 43.1132 -29.1924 -39.5106
74 41.6913 -31.7525 -40.4298
74 46.7815 -26.8751 -40.7252
74 52.5616 -25.4117 -43.9855
74 49.0871 -27.3549 -42.7307
74 54.9654 -25.8456 -45.8758
0 63.1848 -22.375 -48.3269
0 -0.104831 -1.08305 0.201057
0 84.1742 -17.8403 -59.2842
74 82.3277 -13.0009 -57.063
74 80.8501 -9.72405 -54.4511
0 73.7298 -10.2491 -51.4579
74 19.744 7.79354 -9.03085
74 84.3521 -7.24321 -55.7704
74 81.8016 -6.69045 -53.7767
74 80.2675 -3.36746 -51.4951
74 85.4611 -4.17264 -55.1037
74 82.8744 -3.72211 -53.1541
74 82.6424 -2.83592 -50.4038
74 86.6216 -0.458229 -54.9989
74 83.5046 -1.23167 -52.0912
74 81.942 1.60343 -50.0605
74 85.5156 3.37091 -51.6702
74 83.134 3.96916 -50.0893
74 80.5513 4.89643 -48.3413
74 79.1492 7.17042 -48.448
74 81.8765 8.47082 -45.3205
74 79.3057 9.31683 -43.4477
74 82.7946 10.3529 -47.0084
74 80.4402 10.7658 -45.4908
74 77.8992 11.5403 -43.586
74 77.9297 12.6552 -41.1868
74 81.4966 13.7553 -44.7013
74 79.0149 14.226 -43.0968
74 76.4867 14.9548 -41.2417
74 76.553 16.031 -38.794
74 74.0273 16.7968 -37.0187
74 89.9203 14.9148 -49.1651
74 75.1126 18.3462 -39.0394
74 72.6216 20.1545 -34.7575
74 70.1424 20.826 -32.9099
74 86.0721 18.8928 -45.0448
74 71.2871 23.5555 -32.4763
74 82.2396 23.0393 -41.0604
74 72.3913 25.2621 -34.4135
74 69.9687 25.9062 -32.514
74 76.05 27.4293 -35.6742
74 76.0192 28.7471 -33.2775
74 71.7114 29.95 -29.7212
74 69.4969 30.6057 -27.899
74 64.3399 30.6586 -26.6705
74 56.8647 32.3089 -21.0463
74 74.8144 31.1703 -33.6103
74 75.0927 32.0959 -31.1019
74 73.1678 32.8785 -29.2884
74 70.7277 33.4115 -27.4083
74 68.0248 32.9426 -27.9503
74 65.4172 33.5737 -26.1767
74 62.9259 34.0638 -24.2617
74 60.401 34.4513 -22.3593
74 57.8403 34.9132 -20.4994
74 55.6601 35.5622 -18.7197
74 53.2155 36.0765 -16.9035
74 50.7973 36.9212 -15.1309
74 45.8184 38.4174 -11.6154
74 43.1418 38.8982 -9.73422
74 71.6395 35.2064 -29.2509
74 69.1824 35.7777 -27.4017
74 66.5248 36.3943 -25.4865
74 64.0071 37.0113 -23.6121
74 61.5104 37.4946 -21.8869
74 59.2726 38.0085 -20.0924
74 56.8022 38.438 -18.1714
74 54.5593 39.0378 -16.4606
74 70.3143 38.3151 -26.7388
74 67.753 38.9243 -24.7634
74 65.1692 39.5323 -22.9199
74 66.4084 42.5071 -22.5262
74 44.5538 -30.2877 -37.2599
74 43.2134 -33.1348 -37.9179
74 49.5061 -30.2859 -38.2824
74 45.6828 -28.6085 -38.98
74 47.1453 -29.6879 -36.7734
74 40.7729 -27.3826 -35.0466
74 51.7361 -26.9005 -41.8258
74 53.2048 -27.9479 -39.519
74 70.3282 -27.5093 -52.5141
74 68.1236 -26.9402 -50.8044
74 60.2091 -24.9776 -45.063
74 59.1192 -27.5916 -45.0249
74 57.7156 -24.2545 -43.1045
74 56.5315 -26.9089 -43.1759
74 56.8788 -25.6582 -40.8912
74 75.5423 -26.1597 -51.7987
74 81.3305 -13.6222 -52.9358
74 79.7946 -10.2139 -50.2604
74 82.3806 -10.5911 -52.172
0 95.2362 -8.54179 -58.0226
74 83.5537 -6.29099 -49.169
74 80.8938 -7.19273 -49.5551
74 79.3935 -3.94788 -47.1792
74 82.3641 -2.55402 -47.0827
74 80.9672 0.173844 -47.9737
74 83.3199 0.381888 -46.4449
74 81.9869 2.6559 -47.4938
74 84.3881 3.31052 -45.8291
74 80.7139 5.92376 -45.7877
74 80.7642 7.07107 -43.3244
74 80.8044 8.09962 -40.8556
0 39.2193 17.3618 -11.9444
74 76.7679 10.0675 -41.5392
74 74.3115 10.8449 -39.7016
74 76.9137 12.3139 -36.6951
74 75.4348 13.4443 -39.348
74 72.9429 14.1742 -37.4346
74 75.5729 15.6721 -34.337
74 72.9915 16.4394 -32.5448
74 71.5222 17.5537 -35.1119
74 69.2192 17.9182 -33.5549
74 72.9461 22.3569 -29.9338
74 66.0859 24.3391 -24.822
74 71.6603 24.6772 -30.117
74 69.4556 25.2782 -28.2462
74 67.1494 26.027 -26.587
74 64.698 26.5916 -24.8526
74 62.3074 27.191 -23.0188
74 59.7921 27.7033 -21.1061
74 57.3017 28.2033 -19.2798
74 44.8465 31.5712 -10.1089
74 72.9717 27.5427 -29.6477
74 70.3664 27.0624 -30.1578
74 68.5906 30.0978 -23.6472
74 65.7518 28.3223 -26.6301
74 63.2457 28.9086 -24.8182
74 61.1973 31.6131 -18.1016
74 58.7318 32.0699 -16.2075
74 56.2125 32.7993 -14.4052
74 53.6721 33.5774 -12.6201
74 48.8425 34.9171 -9.10493
74 46.2966 35.661 -7.39516
74 43.8179 36.0645 -5.44951
74 66.9927 31.2932 -26.1138
74 61.9657 32.322 -22.3988
74 59.4721 32.8189 -20.4749
74 54.7379 33.8158 -16.7729
74 52.4266 37.1808 -10.3568
74 49.6143 35.2068 -13.2604
74 47.2785 36.0778 -11.5331
74 44.9602 38.9254 -4.91269
74 42.3376 39.4598 -3.09059
74 39.8904 -76.0017 -50.7122
74 43.838 -35.9891 -33.6644
74 45.0617 -33.1117 -33.1211
74 41.0762 -30.2959 -31.1801
74 47.3345 -28.5123 -34.3233
74 44.7241 -29.1093 -34.7814
74 54.6854 -29.0681 -37.2971
74 50.7434 -27.4314 -37.5713
74 50.971 -26.224 -35.1105
74 49.63 -29.09 -35.8691
74 64.2283 -26.7885 -44.9539
74 55.7633 -27.3283 -39.1557
74 55.9578 -26.1865 -36.6708
74 74.353 -27.8607 -50.2437
74 74.4803 -26.7597 -47.7092
74 70.5436 -26.0917 -50.2735
74 71.9035 -26.1944 -45.7769
74 69.2398 -26.6824 -46.323
74 69.4039 -25.6143 -43.8802
74 66.7995 -26.1908 -44.4727
74 66.845 -25.0338 -41.9601
74 62.8795 -24.3375 -44.5964
74 64.3571 -24.368 -40.0291
74 60.3483 -23.7117 -42.6586
74 61.9909 -24.0833 -38.5011
74 57.8768 -22.9945 -40.6308
74 59.5287 -23.8127 -37.5098
74 55.3648 -22.3514 -38.6136
74 81.1742 -25.41 -53.7654
74 79.3596 -23.6902 -52.8221
74 76.8268 -24.4047 -53.3201
74 78.2171 -24.4463 -48.882
74 74.2368 -23.8375 -51.4714
74 75.7612 -23.8291 -46.9538
74 71.7333 -23.1929 -49.6302
74 71.8024 -22.0575 -47.2141
0 86.1714 -22.9745 -54.8397
74 84.6353 -23.2654 -53.1404
74 80.6177 -20.8065 -52.0149
74 76.9297 -20.9322 -46.2381
0 66.0108 -18.2087 -40.2747
74 85.7095 -21.6306 -54.8567
74 81.6868 -17.5647 -50.8949
74 80.296 -14.1624 -48.7387
74 81.359 -11.1256 -47.9798
74 78.761 -10.6801 -46.1357
74 79.8019 -7.79947 -45.1925
74 80.1169 -6.09444 -43.164
74 81.2711 -4.30454 -45.1766
74 81.2773 -3.21135 -42.5595
74 78.1353 -3.31881 -39.9117
74 80.075 -0.436901 -43.4945
74 82.4451 -0.274936 -41.9721
0 95.0252 -0.95243 -52.5423
74 81.0922 2.11553 -42.762
74 81.1913 3.27789 -40.2759
74 84.5334 4.44037 -43.26
74 79.7112 5.50634 -41.2554
74 79.7608 6.68192 -38.7675
74 79.796 7.82126 -36.2983
74 80.885 9.20366 -38.4375
74 75.8603 9.66304 -37.0385
74 78.4414 11.1432 -34.0413
74 74.3716 13.0864 -34.8474
74 77.1139 14.4602 -31.6522
0 95.5664 14.7469 -45.9224
74 62.8593 23.1568 -21.1144
74 60.5334 24.6624 -16.7819
74 75.605 22.6611 -29.0469
0 74.0019 23.0099 -28.941
74 73.4075 23.2502 -27.3531
74 68.6833 24.8748 -24.0604
74 64.0489 26.0511 -20.5682
74 61.5364 26.3984 -18.6479
74 59.0937 26.9619 -16.6878
74 56.4789 27.5887 -14.7694
74 77.63 26.8746 -30.1622
74 75.4851 27.4035 -28.5512
74 55.0852 31.2193 -12.5941
74 52.5278 31.8542 -10.7788
74 50.3673 33.7779 -6.53264
74 47.9914 34.2197 -4.98403
74 51.3777 35.4525 -8.39268
74 47.5193 -32.6457 -32.3291
74 51.2364 -30.3125 -33.5055
74 43.9051 -28.4386 -28.0415
74 42.6249 -30.0433 -26.2513
74 52.4244 -27.376 -32.8598
74 56.0504 -25.0246 -34.2531
74 53.5161 -25.6554 -34.6588
74 55.0156 -26.7087 -32.4632
74 58.3954 -25.5709 -35.7954
74 58.5187 -24.4059 -33.3319
74 71.9482 -25.0653 -43.3776
74 70.6797 -22.6707 -43.0574
74 68.0491 -23.3105 -43.5436
74 68.1181 -22.0756 -41.1704
74 66.9358 -23.8615 -39.455
74 65.6598 -21.4291 -39.2214
74 62.156 -22.8869 -36.0526
74 59.6408 -22.6665 -35.018
74 83.407 -24.4494 -50.4673
74 80.8253 -23.8114 -48.4309
74 80.8741 -22.7733 -45.9691
74 78.3033 -23.3137 -46.454
74 75.7231 -22.6283 -44.4586
0 75.1278 -21.1122 -43.2165
74 71.8073 -20.9339 -44.7764
74 73.2816 -20.9831 -40.1605
74 82.0234 -20.8608 -47.4369
74 80.6615 -18.4614 -47.14
74 78.047 -19.134 -47.8529
74 79.6131 -19.2616 -43.2743
74 77.1108 -18.5273 -41.3819
0 98.6373 -17.1733 -55.9944
0 93.5206 -17.1723 -54.8214
74 77.815 -11.4082 -41.974
74 77.2585 -6.222 -40.8393
74 78.9063 -6.98815 -38.6569
74 79.0156 -1.0684 -38.5403
0 96.5819 -2.06874 -50.0222
0 86.5016 0.314154 -42.7396
74 77.7088 2.22614 -37.0539
74 80.1067 2.86638 -35.7559
74 78.8017 5.24468 -36.6255
74 81.18 5.69315 -35.1081
0 92.447 9.61364 -40.3049
74 75.9447 17.8553 -29.5666
74 77.5539 21.0345 -26.2669
74 78.2905 22.6645 -28.2464
74 74.9372 20.8783 -27.1043
74 74.854 21.8376 -24.4778
74 72.187 22.634 -22.9625
74 65.7304 24.982 -17.9859
74 57.9989 26.5188 -12.5665
74 55.523 27.2587 -10.7578
74 73.3747 24.1764 -24.7768
74 71.5607 26.5303 -21.0375
74 54.2242 30.8031 -8.29084
74 51.8499 31.3615 -6.78657
0 53.7832 37.7461 -3.95917
0 52.3463 -35.4679 -31.5262
74 50.1437 -32.0391 -31.704
74 50.2207 -30.8384 -29.2999
74 49.0271 -33.6841 -29.8377
74 46.4831 -31.9167 -25.6506
74 85.8591 -37.9867 -54.377
74 52.7458 -31.4007 -31.2983
74 52.8197 -30.2059 -28.8328
74 50.2115 -29.6245 -26.8112
74 46.4935 -27.9163 -27.6027
74 46.5209 -26.6886 -25.1391
74 41.4437 -26.7204 -23.6655
74 41.5227 -25.417 -21.247
74 39.0784 -24.8742 -19.3153
74 52.4621 -26.1537 -30.4211
74 52.6691 -24.938 -28.0051
74 56.2194 -23.8227 -31.7655
74 57.5015 -24.9937 -29.1219
74 53.7472 -23.2432 -29.7679
74 55.1968 -24.274 -27.5374
74 64.4534 -23.2215 -37.5529
74 64.5713 -22.0348 -35.0619
74 63.4276 -23.0352 -31.4323
74 61.0043 -23.8586 -32.4386
74 58.6178 -23.2441 -30.8401
74 58.7724 -22.0112 -28.3453
0 81.7247 -23.4199 -44.3376
74 72.0969 -22.7946 -38.469
74 72.1976 -21.5945 -36.0326
74 68.2094 -20.927 -38.7122
74 69.7186 -20.9582 -34.0374
74 67.1154 -21.5372 -34.5362
74 67.2341 -20.4092 -32.0845
74 59.9044 -20.2591 -29.9918
74 78.3882 -20.9347 -41.6074
74 75.911 -20.4126 -39.7314
74 75.9276 -19.2318 -37.2307
74 71.997 -18.642 -39.944
74 73.4788 -18.6664 -35.3154
0 88.921 -19.9987 -49.2557
74 82.0152 -18.1371 -42.3979
0 81.4372 -17.0211 -41.3256
74 79.6887 -18.0206 -40.888
74 79.7221 -16.8695 -38.4401
74 77.1609 -17.4436 -39.0139
74 77.0771 -16.3858 -36.6591
0 73.8005 -16.4244 -38.3319
74 74.9123 -15.6255 -34.9088
0 82.5535 -14.1195 -40.7299
74 77.2083 -11.8402 -37.9502
74 79.4434 -12.2064 -39.353
74 77.8712 -9.18384 -36.9452
74 76.4204 20.1999 -21.8693
0 30.7142 29.7893 10.7432
74 77.4623 21.7723 -23.708
74 74.875 22.3583 -21.8111
0 71.2127 41.1654 -11.2233
0 55.8811 52.3291 5.18077
74 40.7453 -31.052 -17.6446
74 89.8326 -39.7334 -53.8463
74 45.3789 -28.3758 -23.3426
74 46.6423 -29.5195 -20.6005
74 39.461 -27.5963 -15.184
74 52.7723 -29.0628 -26.3602
74 52.9389 -27.8227 -23.9336
74 50.3504 -28.4162 -24.4073
74 50.4098 -27.1709 -21.9835
74 47.8415 -27.7988 -22.3857
74 43.0262 -26.5046 -18.9562
74 52.7289 -23.7441 -25.577
74 54.2125 -24.811 -23.3546
74 51.6962 -24.2255 -21.3382
74 60.1827 -23.2025 -25.8304
74 57.672 -22.5626 -24.1892
74 65.8657 -22.2813 -30.4977
74 66.0338 -21.1296 -28.0613
74 63.518 -21.7799 -28.9796
74 63.8919 -20.4688 -26.3158
74 61.311 -21.3922 -27.7232
74 72.2828 -20.3786 -33.6717
74 72.5965 -19.1091 -31.2324
74 69.8197 -19.9173 -31.5869
0 46.52 -13.8893 -16.3805
74 73.7354 -17.3532 -32.9577
74 79.6643 -15.5868 -36.1099
74 77.4932 -14.9631 -34.4414
74 4.02854 20.1476 27.8496
0 53.4375 54.1153 9.46964
74 77.9132 71.2293 3.12775
74 44.6112 -27.6085 -16.4461
74 42.0469 -28.1893 -17.0759
0 61.3288 -29.5915 -26.5195
74 48.0001 -26.6188 -19.9282
74 48.1988 -25.3851 -17.5313
74 45.6834 -25.9659 -18.41
74 43.3047 -24.1186 -14.0038
74 40.7418 -24.7346 -14.4932
74 40.8499 -23.4958 -12.0308
74 38.2555 -24.1864 -12.5321
74 38.2795 -22.8481 -10.1394
74 59.0581 -26.1952 -26.4039
74 53.1249 -25.3954 -19.0752
74 49.2575 -23.6611 -19.3763
74 59.282 -23.688 -21.6473
74 55.4301 -21.9692 -22.6457
74 52.9544 -21.3633 -20.7075
74 51.8861 -21.8233 -16.3958
74 61.6968 -19.1577 -22.9871
74 60.2485 -21.968 -23.4897
74 67.5605 -19.1928 -29.6427
0 97.1511 -22.2323 -45.3885
0 74.3939 -18.0613 -31.471
0 59.3499 -13.2965 -18.079
0 60.3897 -11.5854 -19.9515
0 109.464 -18.8121 -51.4797
0 98.7321 -4.82193 -40.6412
74 13.3635 17.0037 25.0396
74 10.5777 16.4304 24.0827
0 43.0028 14.6828 2.42485
0 86.9605 7.45712 -27.9303
0 59.2057 42.5071 4.7407
0 83.908 50.5381 -4.97332
74 48.4154 -29.3926 -15.9277
74 47.2979 -25.8539 -13.2043
74 41.1956 -26.2838 -7.90672
74 38.5018 -26.6369 -8.39202
74 50.7431 -24.7917 -17.1059
74 48.369 -24.1629 -15.0373
74 44.7777 -25.1505 -11.6005
74 42.2775 -24.5108 -9.76775
74 58.1395 -25.4704 -19.8463
74 58.3163 -24.2269 -17.3788
74 55.628 -24.8327 -18.1333
0 76.2382 -25.5765 -31.963
74 60.5728 -20.9052 -21.0762
74 61.806 -21.8075 -18.4534
74 58.0129 -20.1654 -19.452
74 54.5002 -21.2272 -15.8519
0 65.9468 -15.6042 -19.2002
0 70.6995 -10.3968 -19.8294
0 68.1794 -9.80108 -18.0087
0 53.0589 -6.22675 -7.08491
0 94.209 -6.45787 -32.6073
0 102.809 -6.53396 -39.9418
0 47.4437 7.76243 2.58049
0 101.482 -1.84617 -35.0572
0 58.5638 7.09062 -6.57458
0 48.4835 9.47351 0.707972
74 22.1852 16.6332 21.0489
74 20.3909 16.0912 22.8784
0 61.7016 23.3847 0.692848
0 70.2678 51.8056 6.00238
0 66.3439 55.8986 10.2394
74 42.2356 67.4732 29.3843
74 51.2445 -27.6907 -12.7574
74 48.813 -26.9998 -10.8874
74 46.233 -26.4035 -9.05419
74 38.7004 -24.5963 -3.38302
74 56.129 -27.6182 -13.7387
74 53.481 -28.2009 -14.5279
74 48.7902 -25.8039 -8.48485
74 43.7547 -25.7676 -7.18104
74 43.7753 -24.5311 -4.77776
74 41.1318 -25.1372 -5.44114
74 41.2929 -23.9699 -2.9836
74 38.7552 -23.2293 -1.07392
74 57.363 -24.7418 -13.1319
74 59.5883 -21.3588 -16.7935
74 58.3396 -22.9357 -14.9564
74 58.3261 -17.7566 -14.4361
0 63.5797 -12.6275 -12.4431
0 61.0596 -12.0318 -10.6224
0 74.7763 -12.1088 -19.1299
0 69.6597 -12.1079 -17.9569
0 53.2119 -3.84576 -2.14845
0 89.6093 -9.2843 -27.0417
0 74.4123 -6.90046 -18.5861
0 71.8922 -6.30474 -16.7654
0 66.8521 -5.11329 -13.1242
0 66.9285 -3.9228 -10.6559
0 64.4085 -3.32708 -8.83529
0 67.9683 -2.21172 -12.5284
0 68.0448 -1.02123 -10.0602
0 65.4483 -1.616 -10.7078
0 65.5247 -0.425506 -8.23958
0 99.3256 -6.45882 -33.7804
0 69.1611 1.88034 -9.4645
0 66.5645 1.28557 -10.1121
0 66.641 2.47607 -7.64386
0 100.442 -3.55725 -33.1847
0 72.7975 4.18619 -10.6894
74 26.3604 14.1235 21.7416
74 24.5823 14.3065 23.7323
74 22.0103 14.9209 25.5547
74 19.4823 15.5221 27.3547
74 17.1171 16.3009 28.3645
0 73.9137 7.08776 -10.0937
0 48.6364 11.8545 5.64443
74 23.8886 18.8426 23.8653
74 20.4019 17.0608 25.3745
74 18.7031 19.0886 26.1627
0 74.9535 8.79884 -11.9662
0 75.03 9.98933 -9.498
0 72.5099 10.5851 -7.67737
0 52.3493 15.3508 6.88773
0 50.9455 18.8481 9.30408
0 93.4993 15.1197 -18.6347
0 88.3827 15.1207 -17.4616
0 56.7379 25.7666 6.80235
0 94.3281 24.4201 -15.0269
0 84.1713 25.6125 -10.2126
0 81.3637 32.6071 -5.3799
0 81.9813 49.4969 3.70816
74 57.6093 -28.8611 -11.1218
74 53.8671 -27.0896 -11.9969
74 50.2064 -26.9869 -6.01221
74 46.3636 -25.2325 -6.56952
74 45.2674 -25.7273 -2.32435
74 42.8765 -25.0689 -0.356908
74 46.351 -23.978 -4.21822
74 59.923 -24.0658 -12.4753
0 71.2929 -12.0337 -12.9685
0 100.13 -15.6851 -32.3998
0 75.9691 -8.01677 -16.066
0 68.4853 -5.03911 -8.13582
74 15.1448 7.92016 30.9669
0 84.7221 -5.71187 -18.4639
0 72.1217 -2.73326 -9.36074
0 69.5251 -3.32803 -10.0083
0 69.6016 -2.13753 -7.54011
0 67.005 -2.73231 -8.1877
0 67.0815 -1.54181 -5.71947
0 64.4849 -2.13658 -6.36706
0 64.5614 -0.946089 -3.89883
0 62.0413 -0.350367 -2.0782
0 57.0012 0.841079 1.56308
0 73.238 0.168314 -8.76503
0 70.6414 -0.426457 -9.41262
0 70.7179 0.764037 -6.9444
0 68.1213 0.169266 -7.59199
0 68.1978 1.35976 -5.12376
0 65.6012 0.764988 -5.77135
0 65.6777 1.95548 -3.30312
0 63.0811 1.36071 -3.95071
0 74.3542 3.06989 -8.16932
0 71.7577 2.47511 -8.81691
0 71.8341 3.66561 -6.34868
0 69.2376 3.07084 -6.99627
0 69.3141 4.26133 -4.52805
0 66.7175 3.66656 -5.17564
0 66.794 4.85705 -2.70741
0 64.2739 5.45278 -0.886773
0 54.1936 7.83567 6.39577
74 18.688 15.1873 31.8424
0 83.0308 4.18429 -13.0355
0 75.394 4.78096 -10.0418
0 75.4705 5.97146 -7.57361
0 72.8739 5.37669 -8.2212
0 72.9504 6.56718 -5.75297
0 70.3539 5.97241 -6.40056
0 70.4303 7.1629 -3.93233
0 67.8338 6.56813 -4.57993
0 67.9103 7.75862 -2.1117
0 60.35 9.54579 3.35021
0 55.2334 9.54674 4.52326
74 27.198 14.7524 24.243
74 28.0653 18.1947 27.1184
74 25.4753 17.93 26.4963
74 24.4959 16.5293 28.4928
74 22.0506 15.9682 27.9277
74 22.9842 19.4422 30.8448
74 20.4661 18.9531 30.3071
0 73.9902 8.27826 -7.62549
0 74.0667 9.46875 -5.15726
0 71.4701 8.87398 -5.80485
0 63.9099 10.6611 -0.34294
0 87.7069 8.20121 -16.133
0 58.6587 19.442 8.77862
0 72.3754 19.3649 0.271149
0 54.6583 22.3445 10.5474
0 78.4553 19.8845 -5.24264
0 58.3711 25.8408 11.7907
0 72.0878 25.7638 3.28321
74 34.8817 32.5264 28.2002
0 104.485 23.2278 -19.8412
0 82.7094 39.0802 2.6205
0 70.109 42.0588 11.7237
0 67.5124 41.464 11.0761
0 83.5381 48.3806 6.22827
74 55.4136 -33.4441 -9.99982
74 55.3479 -28.2804 -9.36953
74 56.6032 -29.3739 -6.93594
74 52.8107 -27.6351 -7.7501
74 54.1355 -28.7533 -5.11379
74 51.6745 -28.085 -3.49162
74 49.1671 -27.4178 -1.68962
74 46.9257 -26.8227 0.0607092
74 60.1329 -28.1577 -10.4514
74 44.0616 -21.1102 2.69512
0 76.7736 -17.243 -14.6854
0 74.2535 -16.6473 -12.8648
0 77.8134 -15.5319 -16.5579
0 65.2895 -11.3628 -4.9865
0 56.2489 -7.26886 0.423532
74 14.2647 6.40999 32.9633
0 73.6784 -3.84956 -6.84064
0 71.1584 -3.25384 -5.02
0 68.5618 -3.84861 -5.66759
0 68.6383 -2.65812 -3.19936
0 66.0417 -3.25289 -3.84696
0 66.1182 -2.0624 -1.37873
0 63.5216 -2.65717 -2.02632
0 63.5981 -1.46667 0.441909
0 55.9614 -0.869999 3.43559
0 99.9191 -8.09571 -26.9195
0 77.3148 -1.54371 -8.06556
0 74.7182 -2.13849 -8.71315
0 74.7947 -0.947992 -6.24493
0 72.1982 -1.54276 -6.89252
0 72.2746 -0.352269 -4.42429
0 69.6781 -0.947041 -5.07188
0 69.7546 0.243453 -2.60365
0 67.158 -0.351318 -3.25124
0 67.2345 0.839176 -0.783016
0 64.6379 0.244405 -1.43061
0 64.7144 1.4349 1.03762
74 11.8494 13.2677 37.6522
0 75.8345 0.763085 -8.11744
0 75.911 1.95358 -5.64921
0 73.3144 1.35881 -6.29681
0 73.3909 2.5493 -3.82858
0 70.7944 1.95453 -4.47617
0 70.8708 3.14502 -2.00794
0 68.2743 2.55025 -2.65553
0 68.3508 3.74075 -0.187304
0 65.7542 3.14598 -0.834894
0 7.79229 16.8476 41.0398
0 92.1478 1.28081 -15.9773
0 82.0674 3.66371 -8.69478
0 76.9508 3.66466 -7.52173
0 77.0273 4.85515 -5.0535
0 74.4307 4.26038 -5.70109
0 74.5072 5.45087 -3.23287
0 71.9106 4.8561 -3.88046
0 71.9871 6.0466 -1.41223
0 69.3905 5.45182 -2.05982
0 69.467 6.64232 0.408408
0 66.8705 6.04755 -0.239182
0 49.3064 11.4081 14.9735
74 28.7573 14.2931 28.0363
74 26.1107 14.444 28.7898
74 22.081 17.8466 32.9034
0 75.547 7.16195 -5.10538
0 75.6235 8.35244 -2.63715
0 73.0269 7.75767 -3.28474
0 73.1034 8.94817 -0.816517
0 70.5068 8.3534 -1.46411
0 65.4667 9.54484 2.17717
0 65.5431 10.7353 4.64539
0 60.4265 10.7363 5.81844
0 64.1393 14.2326 7.06174
0 65.1791 15.9437 5.18923
0 60.2154 18.3256 11.2987
0 52.5787 18.9223 14.2924
0 52.6552 20.1128 16.7606
0 86.5325 15.27 -6.31193
0 83.936 14.6752 -6.95952
0 84.0125 15.8657 -4.49129
0 66.2954 18.8453 5.78494
0 61.2552 20.0367 9.42621
0 53.695 21.8239 14.8881
0 100.249 15.1929 -14.8194
0 95.2091 16.3844 -11.1781
0 87.6488 18.1716 -5.71622
0 85.0523 17.5768 -6.36381
0 85.1287 18.7673 -3.89558
0 62.3715 22.9383 10.0219
0 78.6848 23.456 2.16204
0 94.8451 21.5928 -10.6343
0 72.2408 28.1448 8.21966
0 89.0188 43.1713 4.51139
0 81.382 43.768 7.50507
0 68.2831 60.7348 25.1006
0 75.2682 71.7454 25.6628
74 60.5779 -32.2116 -8.50528
74 45.8983 -27.2838 4.56201
74 59.1127 -28.6895 -6.18856
74 59.2724 -27.5133 -3.63044
74 56.7365 -28.0604 -4.51381
74 55.4596 -24.6763 -2.0256
74 54.1382 -27.601 -2.65952
74 54.4058 -26.385 -0.315419
74 51.837 -26.9252 -1.06027
74 49.3733 -26.2151 0.845564
74 56.6466 -21.8296 -1.44462
0 62.0936 -17.6866 -1.83718
0 75.7338 -18.9541 -12.8129
0 81.9667 -16.0535 -13.3902
0 71.5989 -7.27172 -3.09561
0 69.0788 -6.676 -1.27497
0 75.2352 -4.96587 -4.32053
0 72.6387 -5.56064 -4.96812
0 72.7151 -4.37015 -2.4999
0 70.1186 -4.96492 -3.14749
0 70.1951 -3.77442 -0.679259
0 67.5985 -4.3692 -1.32685
0 67.675 -3.1787 1.14138
0 60.1147 -1.39153 6.60329
0 78.7951 -3.85051 -8.01368
0 76.275 -3.25479 -6.19305
0 76.3515 -2.0643 -3.72482
0 73.7549 -2.65907 -4.37241
0 73.8314 -1.46858 -1.90418
0 71.2348 -2.06335 -2.55177
0 71.3113 -0.872853 -0.0835466
0 68.7148 -1.46762 -0.731137
0 68.7912 -0.27713 1.73709
0 66.1947 -0.871902 1.0895
0 61.231 1.51004 7.199
0 58.6344 0.915266 6.55141
0 77.3913 -0.353221 -5.59734
0 77.4678 0.837273 -3.12911
0 74.8712 0.242502 -3.7767
0 74.9477 1.433 -1.30847
0 72.3511 0.838224 -1.95606
0 72.4276 2.02872 0.512165
0 69.831 1.43395 -0.135425
0 69.9075 2.62444 2.3328
0 67.311 2.02967 1.68521
0 83.6242 2.5474 -6.17467
0 81.1041 3.14312 -4.35403
0 78.5076 2.54835 -5.00162
0 78.584 3.73884 -2.5334
0 75.9875 3.14407 -3.18099
0 76.064 4.33457 -0.71276
0 73.4674 3.7398 -1.36035
0 73.5439 4.93029 1.10788
0 70.9473 4.33552 0.460287
0 71.0238 5.52601 2.92851
0 68.4272 4.93124 2.28092
0 84.664 4.25848 -8.04719
0 84.7405 5.44897 -5.57896
0 82.1439 4.8542 -6.22655
0 79.6238 5.44992 -4.40591
0 79.7003 6.64042 -1.93768
0 77.1038 6.04564 -2.58528
0 77.1802 7.23614 -0.117048
0 74.5837 6.64137 -0.764638
0 74.6602 7.83186 1.70359
0 72.0636 7.23709 1.056
0 72.1401 8.42758 3.52423
0 69.5435 7.83281 2.87664
0 69.62 9.02331 5.34486
0 78.2965 10.1377 0.478664
0 75.7 9.54294 -0.168927
0 75.7764 10.7334 2.2993
0 79.4128 13.0393 1.07438
0 76.8162 12.4445 0.426785
0 31.4547 23.1675 33.1982
0 88.0128 12.9632 -6.26005
0 88.0893 14.1537 -3.79182
0 70.4487 18.3237 8.95264
0 89.1291 15.8648 -5.66434
0 86.609 16.4605 -3.8437
0 74.0086 19.4391 5.25948
0 71.565 21.2253 9.54835
0 82.6851 20.5535 0.393284
0 80.1651 21.1492 2.21392
0 78.7612 24.6465 4.63027
0 96.1908 28.0658 -2.6339
0 73.146 38.6357 14.2957
0 70.3054 -31.081 -10.855
74 55.9511 -27.4125 2.31913
74 53.3587 -27.9614 1.6969
74 51.9253 -24.7466 3.96382
74 50.8642 -27.2952 3.35702
74 55.7618 -23.4486 0.47287
74 53.3188 -21.9747 4.71631
0 78.4068 -17.1688 -9.69706
0 74.483 -13.0758 -5.46008
0 110.88 -18.5144 -30.3533
0 78.1958 -9.57947 -4.21678
0 75.6757 -8.98375 -2.39614
0 73.1556 -8.38802 -0.575501
0 55.5151 -4.21797 12.169
0 86.7958 -9.65556 -11.5512
0 76.792 -6.08218 -1.80043
0 74.1954 -6.67695 -2.44802
0 74.2719 -5.48645 0.0202106
0 71.6753 -6.08122 -0.62738
0 71.7518 -4.89073 1.84085
0 69.1553 -5.4855 1.19326
0 69.2317 -4.29501 3.66148
0 66.6352 -4.88978 3.01389
0 66.7117 -3.69929 5.48212
0 64.1916 -3.10356 7.30276
0 77.8318 -4.3711 -3.67294
0 77.9083 -3.1806 -1.20471
0 75.3117 -3.77538 -1.8523
0 75.3882 -2.58488 0.615922
0 72.7916 -3.17965 -0.031668
0 72.8681 -1.98916 2.43656
0 70.2715 -2.58393 1.78897
0 70.348 -1.39344 4.2572
0 67.7515 -1.98821 3.60961
0 67.8279 -0.797714 6.07783
0 65.2314 -1.39249 5.43024
0 65.3079 -0.201991 7.89847
0 60.1912 -0.20104 9.07152
0 91.5485 -4.44814 -12.1804
0 81.5446 -0.874756 -2.42964
0 78.9481 -1.46953 -3.07723
0 79.0245 -0.279033 -0.609003
0 76.428 -0.873804 -1.25659
0 76.5045 0.316689 1.21163
0 73.9079 -0.278082 0.564044
0 73.9844 0.912412 3.03227
0 71.3878 0.317641 2.38468
0 71.4643 1.50813 4.85291
0 68.8677 0.913363 4.20532
0 68.9442 2.10386 6.67355
0 130.542 -9.29191 -36.426
0 80.0643 1.43204 -2.48152
0 80.1408 2.62254 -0.0132907
0 77.5443 2.02777 -0.660881
0 77.6207 3.21826 1.80735
0 75.0242 2.62349 1.15976
0 75.1007 3.81398 3.62798
0 72.5041 3.21921 2.98039
0 72.5806 4.40971 5.44862
0 69.984 3.81493 4.80103
0 70.0605 5.00543 7.26926
0 86.2208 3.14217 -5.52708
0 83.7007 3.73789 -3.70644
0 81.1806 4.33362 -1.88581
0 81.2571 5.52411 0.582421
0 78.6605 4.92934 -0.0651693
0 78.737 6.11983 2.40306
0 76.1404 5.52506 1.75547
0 76.2169 6.71555 4.2237
0 73.6204 6.12078 3.5761
0 73.6968 7.31128 6.04433
0 71.1003 6.71651 5.39674
0 71.1768 7.907 7.86497
0 50.9396 11.4823 19.9618
0 79.7768 7.83091 0.530543
0 79.8533 9.0214 2.99877
0 77.2567 8.42663 2.35118
0 77.3332 9.61713 4.81941
0 74.7366 9.02235 4.17182
0 72.2166 9.61808 5.99245
0 80.8931 10.7325 1.12625
0 80.9696 11.923 3.59448
0 78.373 11.3282 2.94689
0 78.4495 12.5187 5.41512
0 75.8529 11.9239 4.76753
0 97.1298 10.0597 -9.20186
0 82.0094 13.6341 1.72197
0 79.4893 14.2298 3.5426
0 88.1658 15.3442 -1.3236
0 73.0453 18.9185 9.60023
0 65.5615 21.8962 17.5304
0 75.2779 24.7217 10.7916
0 65.274 28.295 20.5424
0 89.5358 40.3439 8.90401
0 82.052 43.3216 16.8341
74 82.0997 137.836 55.8654
0 64.3784 -29.2196 -0.404741
0 70.5348 -27.5095 -3.4503
0 78.9238 -19.9962 -5.30444
0 63.7268 -17.6124 3.15115
0 87.6003 -18.8818 -10.1706
0 78.6363 -13.5973 -2.29238
0 55.9555 -8.23584 14.0934
0 82.2726 -11.2915 -3.51731
0 79.7526 -10.6958 -1.69667
0 77.156 -11.2905 -2.34426
0 77.2325 -10.1001 0.123968
0 74.7124 -9.50433 1.9446
0 80.7924 -8.9847 -3.56918
0 80.8688 -7.7942 -1.10096
0 78.2723 -8.38898 -1.74855
0 78.3488 -7.19848 0.71968
0 75.7522 -7.79325 0.0720892
0 75.8287 -6.60276 2.54032
0 73.3086 -6.00704 4.36095
0 70.7885 -5.41131 6.18159
0 68.2684 -4.81559 8.00223
0 65.7483 -4.21987 9.82286
0 63.2283 -3.62415 11.6435
0 81.9851 -4.89263 -0.505245
0 79.3886 -5.4874 -1.15284
0 79.465 -4.29691 1.31539
0 76.8685 -4.89168 0.667801
0 76.945 -3.70119 3.13603
0 74.3484 -4.29596 2.48844
0 74.4249 -3.10547 4.95667
0 71.8283 -3.70024 4.30907
0 71.9048 -2.50974 6.7773
0 69.3082 -3.10451 6.12971
0 69.3847 -1.91402 8.59794
0 66.7881 -2.50879 7.95035
0 66.8646 -1.3183 10.4186
0 64.2681 -1.91307 9.77099
0 80.5048 -2.58583 -0.557124
0 80.5813 -1.39534 1.9111
0 77.9847 -1.99011 1.26351
0 78.0612 -0.799617 3.73174
0 75.4647 -1.39439 3.08415
0 75.5411 -0.203894 5.55238
0 72.9446 -0.798665 4.90479
0 73.0211 0.391828 7.37301
0 70.4245 -0.202943 6.72542
0 70.501 0.987551 9.19365
0 67.9044 0.39278 8.54606
0 67.9809 1.58327 11.0143
0 65.3843 0.988502 10.3667
0 37.6634 7.54145 30.3937
0 81.6211 0.315738 0.0385879
0 81.6976 1.50623 2.50682
0 79.101 0.911461 1.85922
0 79.1775 2.10195 4.32745
0 76.5809 1.50718 3.67986
0 76.6574 2.69768 6.14809
0 74.0609 2.10291 5.5005
0 74.1373 3.2934 7.96873
0 71.5408 2.69863 7.32114
0 71.6173 3.88912 9.78936
0 69.0207 3.29435 9.14177
0 69.0972 4.48484 11.61
0 82.7374 3.21731 0.6343
0 80.2173 3.81303 2.45494
0 80.2938 5.00353 4.92316
0 77.6972 4.40875 4.27557
0 77.7737 5.59925 6.7438
0 75.1771 5.00448 6.09621
0 72.6571 5.6002 7.91685
0 72.7335 6.79069 10.3851
0 70.137 6.19592 9.73748
0 70.2134 7.38642 12.2057
0 67.6169 6.79164 11.5581
0 81.4101 7.9051 5.51888
0 78.8135 7.31033 4.87129
0 78.89 8.50082 7.33951
0 82.5263 10.8067 6.11459
0 79.9298 10.2119 5.467
0 80.0062 11.4024 7.93522
0 69.9259 13.7853 15.2178
0 81.046 13.1135 6.06271
0 73.5623 16.0911 13.9928
0 70.9657 15.4964 13.3453
0 68.4456 16.0921 15.1659
0 64.5217 20.1851 19.4029
74 30.9489 -29.088 22.9309
0 78.248 -26.9157 -3.97576
0 89.1571 -19.9981 -7.65053
0 88.8696 -13.5992 -4.63847
0 83.8294 -12.4078 -0.9972
0 81.2329 -13.0026 -1.64479
0 81.3093 -11.8121 0.823437
0 78.7128 -12.4069 0.175846
0 78.7893 -11.2164 2.64407
0 76.2692 -10.6206 4.46471
0 58.5521 -7.64107 14.7409
0 92.5059 -11.2934 -5.8634
0 82.3491 -10.101 -1.04908
0 82.4256 -8.91051 1.41915
0 79.829 -9.50528 0.771558
0 79.9055 -8.31479 3.23979
0 77.309 -8.90956 2.5922
0 77.3854 -7.71907 5.06042
0 74.7889 -8.31384 4.41283