ITEM: TIME
40.0
ITEM: TIMESTEP
0
ITEM: NUMBER OF ATOMS
32
ITEM: BOX BOUNDS pp pp pp
-77.49 77.49
-77.49 77.49
-77.49 77.49
ITEM: ATOMS type x y z
26 -11.7074 34.4277 32.3121
26 -14.4897 -14.1814 -0.895615
26 1.59801 -5.8047 -0.581314
0 7.78161 16.9096 5.93255
26 9.54021 28.8653 13.2869
26 -0.666215 -16.6422 3.13273
0 12.2504 25.8463 8.213
0 10.4891 11.287 5.50168
0 9.17485 14.4041 13.9238
0 12.3795 17.8378 13.1531
0 10.1829 -10.9905 -6.84115
0 12.2255 -5.63384 -6.54866
0 16.9872 -2.4926 -12.8366
0 11.5375 -1.4689 6.47378
26 13.0312 9.09713 12.2926
0 16.1971 -5.75351 -3.92841
0 19.554 -3.5139 -12.058
0 21.2033 24.8781 19.7493
26 21.7992 15.7265 13.6621
26 24.7274 16.2373 16.0542
0 25.0343 29.3597 23.5789
26 25.7405 -18.1315 -25.1163
26 38.4124 52.8822 20.8969
26 28.9316 -6.32903 -10.0435
0 29.8328 -4.19197 -15.0934
0 27.345 -2.55911 0.541416
0 34.29 1.33752 -6.66341
26 20.5301 -46.6978 -16.2411
26 47.4714 -0.40964 -1.1161
26 77.4078 -3.40634 -20.3122
26 67.4246 -60.8402 -44.1113
26 42.0475 -68.6986 53.1257
