ITEM: TIME
40.0
ITEM: TIMESTEP
0
ITEM: NUMBER OF ATOMS
48
ITEM: BOX BOUNDS pp pp pp
-77.49 77.49
-77.49 77.49
-77.49 77.49
ITEM: ATOMS type x y z
26 -25.9577 -20.641 60.044
26 59.237 -3.98418 53.4067
26 30.9483 0.185624 41.3747
26 26.4782 -3.92133 32.4076
0 23.8444 7.66813 21.9904
26 42.9418 -7.91047 29.054
0 67.1108 -6.0856 30.971
0 27.0319 -7.1236 18.8372
26 39.7473 0.304626 18.0938
0 67.572 -2.31257 28.1065
0 25.998 -4.76882 14.5828
26 48.9807 -7.76827 20.3898
26 51.5211 -8.67549 21.419
26 39.2371 -1.54098 16.8976
0 16.3131 5.52736 10.0494
0 21.0507 5.23008 9.70167
26 77.153 -10.9977 29.6111
0 17.2913 8.12299 9.3121
0 23.5239 9.24395 10.3542
0 25.4803 14.4352 8.8795
0 30.7348 12.9605 10.6589
26 51.2177 -12.1808 19.4628
26 48.2964 -10.1258 20.9285
26 52.8313 -10.7965 20.86
26 38.7404 -5.23855 16.8819
26 40.5777 -5.26698 15.5804
26 35.8726 -1.48963 14.1154
0 24.1391 8.26577 7.72685
0 0.955853 0.648177 0.431083
26 52.5882 -14.3769 18.794
0 20.3248 -1.91754 5.92169
0 24.7544 7.28759 5.09953
0 8.32067 -0.386436 0.973019
0 13.0582 -0.683714 0.625248
0 30.3168 -3.68949 7.35334
0 16.5096 5.92578 0.54042
0 2.85721 -7.23678 -2.45918
0 18.5642 11.3163 -5.68876
26 7.28224 28.2899 -13.8174
26 -11.7956 -3.72046 -9.48258
0 5.42872 -3.0237 -6.56118
0 60.601 -18.5077 12.1227
26 -3.07931 -2.67087 -11.0776
26 40.6197 -13.1908 1.48767
0 15.0578 -8.36946 -7.01953
26 -0.350252 13.4935 -28.9412
26 16.6726 -21.2304 -13.479
26 0.930373 -22.3368 -27.7756
