ITEM: TIME
40.0
ITEM: TIMESTEP
0
ITEM: NUMBER OF ATOMS
44
ITEM: BOX BOUNDS pp pp pp
-77.49 77.49
-77.49 77.49
-77.49 77.49
ITEM: ATOMS type x y z
26 3.06859 4.83269 -21.2159
26 5.27734 2.88522 -22.502
0 23.8654 -2.9594 -19.9749
0 16.4822 -1.98493 -19.5914
26 -14.0837 10.0494 -3.27446
0 23.6666 2.05088 -15.0471
0 20.6163 12.5376 -9.11562
0 17.2561 -7.41916 -12.3634
0 21.9579 5.64657 -8.74187
0 22.3592 -3.85758 -9.09242
0 23.2996 -1.24443 -8.36812
0 10.8169 -3.31514 -1.75045
0 23.3014 -0.986231 -3.61559
0 18.5691 -0.736104 -4.06048
0 43.7388 -0.83036 -7.96604
0 27.8331 3.51572 -2.99543
0 25.7517 3.0415 -4.26875
0 19.8803 5.68875 -0.510129
0 31.4244 5.40452 -3.09957
0 25.3828 -0.512013 -2.34227
0 22.7319 0.212333 -1.51384
26 16.4764 12.5684 5.74724
26 44.1229 15.3058 1.59552
0 10.8188 -3.05694 3.00208
0 27.0953 -3.5913 0.857526
0 30.4859 3.04957 0.928664
0 33.5077 6.13694 2.92628
26 15.9507 13.5841 7.70158
26 31.0824 17.6662 7.66831
26 29.7997 11.3823 7.95291
26 31.4395 14.0322 10.7068
26 33.0284 16.044 10.5311
26 30.5626 18.6725 11.5826
26 33.8508 19.8171 9.85392
26 26.4836 9.46323 10.8212
26 28.0986 10.7097 9.43598
26 29.3778 11.5399 12.7594
26 28.6427 15.4605 12.8692
26 29.3973 13.8659 14.8002
26 32.1709 14.0027 14.4943
26 31.927 18.4533 15.1677
26 31.4326 19.4582 17.2431
26 29.325 18.9247 15.6737
26 33.678 18.8804 25.1225
