ITEM: TIME
40.0
ITEM: TIMESTEP
0
ITEM: NUMBER OF ATOMS
40
ITEM: BOX BOUNDS pp pp pp
-77.49 77.49
-77.49 77.49
-77.49 77.49
ITEM: ATOMS type x y z
0 -0.170095 1.06667 0.0951501
26 18.3998 14.2255 4.31471
26 8.97074 2.91147 2.84309
26 30.1064 8.21338 38.1546
0 17.2595 2.70287 2.65545
0 16.1904 -3.18229 0.825242
26 8.15508 -13.251 -1.45519
0 22.9156 0.00859457 1.26379
0 41.3804 14.688 -8.34147
26 13.0639 -10.1327 -2.92816
0 44.1924 14.0494 -4.55499
0 21.8629 -8.02034 0.691369
0 42.5649 5.56679 2.29322
0 47.0209 11.267 0.489282
0 54.3704 8.48025 -2.71945
0 58.8438 9.16616 8.21459
26 42.2084 -4.58339 1.3803
0 51.6079 2.68756 -2.73258
0 59.4196 6.74931 12.2742
0 64.4999 6.47188 6.82293
26 31.6307 -17.6678 -4.35955
26 73.094 10.231 3.29613
26 45.5344 -8.14658 -18.1169
26 55.2406 -12.604 -4.20547
26 58.3999 -13.9966 -3.52339
26 49.824 -23.8877 6.0642
0 82.6032 -4.30087 9.5093
26 88.2859 -4.94813 29.6695
0 87.0757 -0.744429 8.96315
0 82.0934 -10.4591 10.4809
0 83.7704 -8.40781 7.40602
0 84.3297 -8.68089 10.2078
0 88.7857 -2.98068 8.40386
26 93.1945 -5.04041 8.08983
26 95.5946 -6.00364 0.175126
26 94.9861 -3.72876 0.672376
26 88.4181 -15.0651 0.842212
26 91.6515 -13.0615 2.47341
26 94.3723 -9.37508 3.62046
26 97.8363 -6.14515 -0.237619
