ITEM: TIME
40.0
ITEM: TIMESTEP
0
ITEM: NUMBER OF ATOMS
50
ITEM: BOX BOUNDS pp pp pp
-77.49 77.49
-77.49 77.49
-77.49 77.49
ITEM: ATOMS type x y z
26 -13.748 38.5523 -4.13601
26 -17.2654 5.50973 6.54647
0 15.3639 4.25885 13.0876
0 14.8128 0.811817 9.54822
26 -8.21979 -14.4309 -18.5598
0 13.0906 -0.551824 5.32592
0 15.309 2.84448 2.83647
0 18.6774 0.928464 12.3239
26 13.5415 4.93327 0.0319806
0 18.0025 5.04452 4.9292
0 17.9266 0.401218 5.97199
0 17.1 -4.76933 0.662902
26 31.953 -4.91458 22.9438
0 22.2875 2.55053 2.03588
26 39.332 15.3916 14.8359
0 13.8553 -10.4164 -4.96922
26 24.4481 -0.110584 -3.81271
0 20.6341 -7.79056 -8.58229
0 30.6367 -2.7466 4.73067
26 32.8291 6.10717 0.50839
26 43.918 2.37977 12.8556
26 44.4012 5.10891 11.1613
0 30.1066 -2.9647 -10.1026
0 34.722 -2.3208 -0.975132
26 25.427 11.1749 -27.9552
26 27.1947 14.736 -26.7973
0 21.874 -18.8514 -14.2953
0 33.8953 -7.49135 -6.28422
0 25.4911 -3.60859 -19.2301
0 35.1423 -4.93144 -6.64409
26 43.4346 1.42015 -1.46058
0 34.8189 5.55143 -13.3118
0 55.2443 13.0287 7.64513
26 12.1058 -34.8697 -19.2788
0 32.3728 -11.7748 -7.69404
0 38.5317 -3.61852 -8.45063
26 45.2785 2.18837 -2.40994
0 55.0925 3.74213 9.7307
0 57.3868 11.7817 6.19847
26 26.851 -2.68493 -30.8583
0 36.6099 -2.06238 -15.4854
26 31.9476 -24.347 -21.8557
26 32.6866 -22.0365 -22.0278
26 31.8382 -22.8386 -19.9126
26 70.0216 0.555728 10.3941
26 35.7959 -22.1679 -23.8509
26 67.0026 -13.3391 9.39455
26 37.1033 -36.67 -25.8531
26 47.0941 -30.2417 -19.8805
26 92.998 10.5727 -0.543884
