ITEM: TIME
40.0
ITEM: TIMESTEP
0
ITEM: NUMBER OF ATOMS
50
ITEM: BOX BOUNDS pp pp pp
-77.49 77.49
-77.49 77.49
-77.49 77.49
ITEM: ATOMS type x y z
26 21.6043 43.9794 39.5583
0 24.9558 18.944 38.4837
26 15.4468 20.3247 -11.8449
0 23.7525 17.3536 23.9856
26 22.5948 17.7496 35.0675
26 33.9969 22.6704 -11.9799
0 19.9273 15.3279 28.5025
26 24.6501 13.1609 38.8612
26 24.4387 11.4581 35.0904
26 15.6335 11.7297 1.81959
0 12.4921 8.53114 -10.4749
0 11.4007 9.50642 -5.94595
0 19.9169 4.44963 5.8335
0 22.7419 4.5588 21.4958
0 25.894 4.48815 8.17403
0 28.7499 4.63389 7.921
26 52.1325 7.37592 -3.36706
0 2.37315 1.22591 1.39338
0 13.0017 2.56777 -8.15854
0 16.9181 1.70165 2.97482
0 15.8267 2.67693 7.50379
26 26.9658 1.48854 25.7906
0 27.7807 2.75397 12.1849
26 4.63992 2.78517 -29.8239
0 19.8653 -1.04439 18.372
0 21.3957 0.366179 3.88601
0 -1.29883 -3.61838 -10.2702
0 4.14799 -3.07393 -13.6229
0 7.00395 -2.92819 -13.8759
26 12.9878 -2.86612 -4.30081
26 47.9408 -5.42598 39.2731
26 -2.97801 -8.54696 14.7369
0 18.7842 -5.48997 3.60882
26 23.0085 -2.92816 -29.0448
26 21.5415 -3.13491 -27.3405
26 50.8961 -3.75343 0.0052492
0 42.2843 -7.68517 7.01265
0 48.9757 -10.9346 -17.0495
0 50.0362 -11.9465 -5.66306
26 -18.6618 -16.4644 -27.1551
0 41.9468 -18.3837 13.3278
26 72.9041 -14.2026 -17.3362
26 3.18454 -19.3061 -25.7867
26 11.9496 -24.7775 4.70339
0 37.0405 -24.8549 3.08144
26 42.2239 -25.3585 19.9095
26 42.5064 -28.5911 21.0266
26 50.6062 -22.713 -14.5742
26 45.0454 -28.0718 19.4226
26 16.3832 -40.5016 29.6615
