ITEM: TIME
40.0
ITEM: TIMESTEP
0
ITEM: NUMBER OF ATOMS
36
ITEM: BOX BOUNDS pp pp pp
-77.49 77.49
-77.49 77.49
-77.49 77.49
ITEM: ATOMS type x y z
26 11.2753 2.35004 53.6028
26 -9.4594 -20.5435 24.6817
26 13.1943 8.41803 15.0506
0 6.88916 2.45961 5.44051
26 25.095 6.17222 22.5997
26 -10.693 -35.267 30.3643
0 -4.59142 -31.4345 28.3421
0 -3.11055 -32.0247 30.7288
0 8.38355 -5.88603 14.5295
0 10.1922 -3.73569 13.939
26 26.1077 4.89667 20.0541
26 28.7775 -6.21179 33.7668
0 18.6361 -11.3965 18.8854
0 10.7343 0.366533 -4.36586
26 3.44783 17.9439 -32.4704
0 18.7807 10.652 -5.08916
26 31.0629 14.4539 1.27559
26 -2.59282 -43.7685 27.5087
0 20.7881 3.82917 -2.8448
0 23.4085 7.66356 -1.79672
0 24.3919 15.8853 -10.728
26 3.08432 -17.1931 -1.33762
0 16.3725 -9.91098 3.39993
0 18.4955 2.73536 -6.86998
0 19.9763 2.14513 -4.48333
0 20.3041 4.88571 -7.46044
26 7.35051 -36.5182 21.4093
0 17.1998 2.10785 -13.1241
0 21.6424 0.337176 -5.96419
0 26.4128 1.30708 -1.78135
26 40.114 15.5265 -9.3778
26 35.4366 -7.08792 -16.3292
26 38.141 -7.34455 -15.6846
26 36.8455 -7.39305 -13.1083
26 57.9084 4.19048 -10.249
26 41.0712 -39.1903 -2.56174
