ITEM: TIME
40.0
ITEM: TIMESTEP
0
ITEM: NUMBER OF ATOMS
38
ITEM: BOX BOUNDS pp pp pp
-77.49 77.49
-77.49 77.49
-77.49 77.49
ITEM: ATOMS type x y z
26 4.95327 22.7198 6.29246
26 15.8668 46.0246 -9.19948
0 16.4582 35.55 8.55676
26 23.0168 50.4211 0.739666
0 21.482 39.4834 7.86563
26 19.4009 21.9854 11.6128
26 21.7503 22.0048 7.86773
26 20.2321 24.1293 11.022
26 23.2289 23.8173 7.7699
26 38.6869 42.2822 23.3293
0 19.283 -7.66293 -2.3111
0 26.4282 5.05201 2.80348
26 30.3718 18.3359 -15.5644
26 31.3481 19.5112 -12.7669
0 33.0994 17.8755 5.08949
0 26.7855 1.44322 -3.21926
26 42.0319 32.4907 -19.9069
0 36.2506 3.7031 6.92982
0 37.7812 9.09291 1.05564
0 38.263 0.822047 -0.798516
0 40.2178 2.13813 14.9415
0 42.3308 13.1348 -2.46407
0 35.4346 -8.9043 0.758521
0 39.0944 -2.89526 -3.99268
0 39.6269 -1.25363 3.26156
0 42.5214 2.0605 1.44745
0 45.1247 2.57121 5.39901
0 47.8948 10.5474 -0.583689
0 48.6256 -7.04759 5.89933
0 46.6047 -1.95146 -9.58357
26 51.8226 10.6336 -9.95651
26 44.8588 -22.5807 -7.93144
26 46.6304 -21.9518 -11.4519
26 47.7632 -22.7421 -13.3482
26 50.6048 -22.6315 -7.45899
26 62.5348 2.35733 -9.29266
26 69.579 -1.885 4.04354
26 77.5689 23.7624 -49.4884
