ITEM: TIME
40.0
ITEM: TIMESTEP
0
ITEM: NUMBER OF ATOMS
36
ITEM: BOX BOUNDS pp pp pp
-77.49 77.49
-77.49 77.49
-77.49 77.49
ITEM: ATOMS type x y z
26 -9.13523 11.6893 -4.07278
26 -12.0147 -18.0928 37.5973
0 -4.32148 10.19 -3.43955
26 1.18041 5.33061 7.20101
26 -7.15561 -28.6381 33.7975
0 2.26528 2.13846 -0.772319
26 -1.98983 -22.768 -15.0989
26 5.35751 -13.1295 -15.2818
26 10.5433 -2.55171 25.5849
26 11.3098 -16.2392 44.1723
0 19.832 -4.8058 5.9194
0 24.9285 7.11613 1.52706
0 29.1719 16.2977 -2.8539
0 23.477 -7.45002 4.37822
0 24.1804 -4.68693 -1.37137
0 24.2553 -4.69832 1.49773
0 24.3302 -4.70971 4.36683
0 25.5872 0.839262 -12.8706
0 27.6456 1.74297 -2.87183
0 27.6679 6.26296 1.45218
0 32.4355 15.3648 17.1549
0 28.5289 -4.56806 -8.66214
0 28.7759 -0.0822434 4.26917
0 29.5541 2.66946 1.38868
26 31.4484 4.34505 22.8574
0 32.3908 6.32488 8.50691
26 31.9508 -7.52893 40.9188
26 34.9997 3.26267 26.2565
0 33.4462 4.51105 12.7788
26 32.3372 -11.1523 -18.2589
26 33.7243 -12.8976 -20.2057
26 39.2307 -5.45279 31.2689
26 31.8704 -28.9159 -20.3081
26 43.6745 -5.37881 29.697
26 66.3391 11.7834 59.3234
26 85.4388 35.1147 51.0894
