ITEM: TIME
40.0
ITEM: TIMESTEP
0
ITEM: NUMBER OF ATOMS
48
ITEM: BOX BOUNDS pp pp pp
-77.49 77.49
-77.49 77.49
-77.49 77.49
ITEM: ATOMS type x y z
26 -0.371702 -8.94019 -34.8601
26 -5.07604 14.7022 15.3185
26 7.65314 10.9891 -10.3776
26 -1.82686 17.6482 22.5425
26 0.26381 -17.4627 -11.8821
0 11.4892 5.34787 -15.4408
26 19.5534 22.9445 -14.2813
26 -5.39095 -16.1166 18.9939
0 10.364 -2.40545 -7.68652
26 19.8594 21.2633 -12.5605
26 21.8812 22.2887 -16.7129
26 1.16496 -11.969 17.0137
26 1.70702 -10.1591 13.3929
26 0.975321 -9.60642 17.7013
0 7.70081 -3.61747 2.13529
0 14.5565 3.74788 -8.09693
0 17.4886 14.6962 -4.69293
26 5.50133 -8.84651 14.1013
0 18.3285 0.845424 -8.06129
0 17.3482 1.02351 -5.36967
0 20.9873 7.79875 -12.1437
26 20.0658 -16.2888 -25.3704
26 7.16251 -10.5093 13.7554
26 6.28454 -9.91871 18.0263
0 15.9475 -7.85418 -2.232
0 21.825 -3.1814 -12.6423
0 17.9015 0.401598 0.993912
0 19.444 -11.881 -6.81301
0 20.4221 -9.18844 -6.63491
0 17.4789 -5.78353 4.30968
0 18.457 -3.09096 4.48777
0 21.1202 -1.87894 -5.33403
0 22.3761 -0.932659 -3.40901
0 22.0984 0.813622 -5.15594
0 23.3542 1.75991 -3.23091
0 22.6605 -11.2909 -10.2712
0 21.6714 0.369796 3.89927
0 25.5861 8.2694 1.74192
0 32.5812 -2.65489 -10.2898
26 26.7859 7.09802 12.1873
0 30.198 -8.48384 -1.59081
26 39.7185 0.372581 -2.57013
26 52.1661 -1.24543 -13.2915
26 55.3644 16.4903 2.87407
26 50.981 30.926 28.6463
26 37.4363 -24.993 24.352
26 46.7406 -66.1175 -32.2778
26 47.0433 -60.0231 -20.3739
