ITEM: TIME
40.0
ITEM: TIMESTEP
0
ITEM: NUMBER OF ATOMS
786
ITEM: BOX BOUNDS pp pp pp
-342.636 342.636
-342.636 342.636
-342.636 342.636
ITEM: ATOMS type x y z
26 149.616 -94.7982 282.672
26 210.693 38.3194 238.586
26 -6.50784 8.9317 8.59173
26 175.404 34.2721 201.38
26 1.29083 8.9422 3.12611
0 -0.720679 0.613426 1.14981
0 1.12149 4.80721 2.44307
0 198.364 12.129 221.666
26 215.384 18.1982 236.59
0 1.73607 0.983137 1.22872
26 224.278 3.94382 255.941
26 197.127 -128.979 321.272
26 213.349 -123.182 336.654
26 33.967 30.4508 7.92491
26 188.392 9.65847 205.945
26 239.408 37.3915 235.526
26 223.148 -6.67375 243.949
26 200.32 2.06088 211.907
0 198.025 -12.84 218.718
26 215.548 -17.1274 241.082
26 201.192 2.1728 209.124
26 201.956 0.718523 210.717
26 202.668 2.32669 212.411
26 223.946 26.9426 218.638
0 226.392 40.7101 206.898
26 18.3214 -2.62469 -2.60129
0 34.135 0.708534 11.7046
26 40.1119 4.57268 14.2811
26 39.7786 7.23847 17.1506
0 198.64 -16.6641 217.504
0 200.738 -13.3261 214.837
26 185.122 1.59823 188.786
26 205.412 2.11316 209.102
26 230.576 6.91546 235.812
0 228.32 39.3966 205.226
26 235.793 -102.458 321.698
26 199.759 -51.1975 242.158
26 200.252 -49.1714 241.231
26 273.264 -44.3839 320.46
0 203.554 -15.9247 217.662
0 208.449 -2.91395 213.086
26 236.537 13.1742 229.031
0 225.044 47.076 192.952
0 240.316 -137.667 348.296
26 236.558 -101.449 316.746
0 36.3189 -1.46071 6.07298
0 36.8477 0.222477 7.82393
0 45.634 1.72967 14.3078
0 204.478 -41.7524 231.626
0 206.15 -42.2101 233.913
0 40.2593 6.0711 4.6999
26 117.548 -4.50083 100.918
0 226.138 25.8998 205.921
0 229.787 43.164 194.104
0 230.675 41.8788 198.6
0 232.347 41.4211 200.887
0 231.988 44.3894 198.142
0 233.66 43.9317 200.43
26 195.157 68.6473 135.405
26 239.353 -90.182 308.83
0 205.922 14.4695 184.199
0 207.594 14.0118 186.486
0 203.106 17.0681 181.375
0 204.778 16.6104 183.662
0 207.235 16.9801 183.741
0 208.907 16.5224 186.029
26 214.664 15.8275 194.357
0 232.603 40.5654 196.928
0 242.141 -136.868 339.919
0 240.639 -131.759 336.638
26 251.647 -108.604 332.308
26 226.194 -98.613 292.598
0 239.51 -101.706 309.264
0 220.997 -82.2876 272.662
26 213.871 -77.3522 261.905
26 187.975 -63.5269 222.305
26 30.4422 -4.06981 -7.32787
26 220.403 -57.558 253.808
0 204.922 -50.228 231.405
0 205.348 -46.4322 226.452
0 207.02 -46.8899 228.739
0 205.034 15.7546 179.702
26 107.872 77.0025 20.7531
26 226.221 -137.086 315.526
0 244.069 -138.182 338.247
0 240.008 -131.33 328.182
0 239.815 -83.5266 292.871
26 210.726 -63.3145 243.529
26 261.259 -73.5343 306.027
0 207.276 -47.7457 224.78
0 208.948 -48.2034 227.067
0 212.104 -41.499 227.903
0 216.403 -36.9355 229.275
26 257.131 -47.3794 284.631
26 183.872 25.5855 141.474
26 113.868 63.6934 28.1797
0 235.145 35.4278 194.041
26 254.998 59.6917 194.279
26 221.663 -146.322 315.142
0 230.523 -139.171 320.941
0 247.243 -143.749 343.817
26 226.948 -136.308 313.34
0 246.168 -134.844 335.581
0 237.686 -118.171 312.705
0 224.494 -81.9462 266.573
0 203.883 -65.8656 232.637
0 224.97 -59.1151 249.186
0 249.265 -66.8081 285.708
0 269.209 -57.9168 301.72
26 208.255 -34.7576 213.195
26 210.812 -35.9169 214.643
26 220.211 -33.5716 227.277
0 211.522 -22.0343 207.014
26 217.715 -12.1471 202.642
26 184.585 26.371 139.252
0 237.858 34.9418 190.161
0 239.171 37.4524 189.703
0 238.028 39.5932 189.166
0 235.997 43.0193 184.134
0 238.131 -126.647 312.485
26 238.545 -111.708 301.614
0 244.339 -111.125 307.451
0 235.907 -75.4178 272.141
0 266.668 -68.4452 299.67
26 86.0252 0.797707 39.452
0 208.196 -33.3902 207.173
26 152.805 44.9851 77.9543
0 239.718 26.8642 196.188
26 246.029 -144.197 332.782
0 247.464 -135.728 325.453
0 241.489 -99.6503 290.223
26 167.363 -42.6372 161.4
26 126.249 -28.7875 100.448
26 166.355 -40.5846 160.845
0 227.75 -52.8372 237.606
0 232.407 -51.242 241.724
0 226.248 -47.728 234.324
26 50.1296 3.79687 -10.1691
0 275.163 -57.2057 295.709
26 85.1533 6.0865 28.7407
26 87.9571 7.15653 30.3578
26 97.8947 4.51825 44.0905
26 207.528 21.4412 158.513
0 241.714 32.3148 186.817
0 240.571 34.4557 186.28
0 242.243 33.998 188.568
0 236.868 38.3394 178.96
26 268.834 81.5493 183.18
0 228.01 -93.8761 265.217
26 257.991 -95.5992 301.432
0 253.377 -70.2909 278.404
0 228.961 -48.214 230.444
26 283.205 -54.9861 299.484
26 73.8485 4.74428 8.67581
26 87.0052 6.45637 25.366
26 90.6405 6.71082 26.4465
0 212.648 -27.5699 197.88
26 210.846 1.51201 171.696
0 196.708 18.0177 141.225
26 221.232 9.16057 177.476
26 147.039 35.0143 69.2911
0 198.909 19.2432 145.264
0 203.038 19.1552 147.63
0 244.359 25.0647 190.635
26 265.995 46.9154 197.193
0 243.847 -137.351 315.168
0 246.304 -136.982 315.246
0 249.218 -101.509 293.205
0 227.123 -92.591 260.721
0 250.957 -95.2032 287.793
0 237.151 -55.154 242.876
26 208.563 -32.4641 190.907
26 241.587 -37.2618 231.563
26 274.085 -45.9327 277.187
0 206.095 -12.2111 173.332
0 199.712 7.79933 147.789
0 204.966 17.8417 145.958
0 206.638 17.384 148.246
26 226.45 24.0855 166.261
0 115.083 58.6249 12.7425
0 116.756 58.1672 15.03
0 118.428 57.7095 17.3176
0 120.1 57.2518 19.6052
0 134.261 54.4175 35.6969
26 235.005 28.6832 171.84
26 238.135 32.9396 174.52
26 258.57 -161.542 342.113
0 247.874 -135.327 310.829
26 248.623 -87.756 272.976
0 278.49 -61.5158 290.614
0 282.619 -61.6038 292.981
0 212.439 16.8383 152.9
26 226.316 22.4347 164.593
26 230.031 24.1578 167.531
0 118.684 56.8537 13.358
26 237.232 25.3292 171.404
26 267.278 19.427 211.564
26 235.08 29.6121 167.853
26 240.357 31.8112 174.805
26 239.909 35.2212 171.641
26 225.53 -89.073 243.74
26 207.076 -69.8958 206.131
26 240.696 -62.1128 241.563
26 238.867 -59.3468 234.455
26 209.016 -47.2714 192.121
0 283.234 -65.4279 291.767
0 78.1694 -0.682882 4.44912
0 239.572 -45.9078 228.551
26 286.657 -52.9791 284.526
26 122.061 4.02739 52.5467
26 163.492 2.55539 100.227
26 131.237 21.7737 50.2612
26 130.483 32.744 42.1691
0 206.365 14.8451 142.535
0 213.838 13.8417 149.477
26 146.536 36.7434 54.8014
0 128.972 53.2517 23.1237
26 239.5 24.7466 170.559
0 132.742 56.132 22.7449
26 239.089 28.1048 167.512
26 236.148 26.0739 168.892
26 241.63 25.5882 174.111
26 239.046 28.5493 169.909
26 243.265 27.9673 171.511
26 275.427 61.0172 183.455
0 254.24 -158.732 326.702
26 255.76 -152.39 326.067
26 227.653 -105.742 253.196
26 240.723 -66.9093 238.885
0 59.7278 -14.6834 -8.28099
26 221.089 -59.683 213.085
0 287.004 -62.5476 291.388
0 211.113 -29.2502 175.258
0 212.426 -26.7396 174.8
0 215.77 -27.655 179.376
0 212.596 -22.0881 173.806
0 106.012 11.0008 22.4488
0 131.33 15.5507 48.0686
0 209.078 14.359 138.655
26 129.466 43.0048 26.9697
0 127.027 51.1704 15.1256
0 130.9 51.9382 21.4517
0 132.572 51.4805 23.7392
26 239.601 24.3654 168.247
26 245.254 26.8874 171.89
26 286.074 71.852 184.726
26 240.325 -95.6851 254.927
26 67.0525 -40.2375 12.8372
26 55.293 -31.1691 -7.65133
26 149.157 -30.5863 102.335
26 185.803 -21.0618 138.599
26 304.036 -47.0801 290.143
0 145.729 24.132 55.467
0 215.067 6.19352 147.048
0 216.739 5.73581 149.336
0 213.036 9.61953 142.015
26 118.226 37.805 9.11901
0 157.142 30.6604 61.0355
0 216.551 13.3556 145.596
0 125.185 46.9767 13.8324
0 126.857 46.519 16.1199
0 128.529 46.0612 18.4075
26 255.037 11.2209 190.172
26 190.985 31.6782 100.543
0 112.405 59.0855 -10.4163
0 253.995 58.6805 150.704
0 255.667 58.2228 152.992
26 262.944 58.9137 159.523
26 51.684 -45.8951 -4.19776
26 266.842 -99.7522 286.16
26 61.0026 -27.8981 -10.017
0 64.8973 -14.7998 -12.0828
0 82.8101 -2.48241 -1.10361
26 245.815 -46.566 220.196
26 205.323 -32.2271 159.886
26 204.269 -30.185 159.388
0 214.184 -32.7046 174.123
0 128.43 7.99058 43.2735
0 107.12 17.7365 8.58136
0 142.829 16.5719 50.6718
26 197.772 2.69622 127.575
0 120.375 28.4587 15.4431
0 145.456 21.5931 49.7564
26 118.854 35.7532 8.42607
26 120.652 38.0411 9.21964
26 188.24 28.0613 95.4645
26 117.404 66.0391 -16.2182
26 262.451 57.2651 157.852
0 265.476 71.973 148.573
26 252.22 -157.972 307.689
26 253.145 -132.299 288.624
26 44.6281 -52.9783 -12.8427
0 70.7164 -27.6168 -2.6949
26 194.772 -50.7801 158.632
26 285.125 -70.4491 279.575
0 212.956 -40.7224 171.615
0 215.516 -42.4652 178.399
0 200.535 -31.5819 150.112
26 163.224 4.84364 76.8454
26 161.221 5.81787 76.4717
26 139.925 21.5105 38.467
0 144.927 19.9099 48.0055
26 143.06 24.2396 38.5047
0 146.241 22.4205 47.5478
0 172.106 16.3823 79.6525
26 121.176 35.9459 8.59011
0 179.032 25.967 80.1092
26 192.484 28.844 93.2107
0 238.746 26.8418 148.277
0 223.509 38.5809 123.95
26 265.966 29.843 175.863
0 258.806 61.5325 144.157
26 295.449 72.7614 179.922
26 306.782 79.5115 186.66
26 271.667 94.4871 136.873
0 56.5737 -37.0539 -14.0528
0 75.6791 -7.84204 -14.9701
0 212.786 -45.3739 172.609
0 214.458 -45.8316 174.897
0 210.756 -41.9479 167.577
0 221.384 -36.2469 175.354
0 105.722 5.06713 7.06806
26 253.581 -21.8541 202.54
0 151.154 23.1599 47.7056
0 175.518 22.231 76.5284
26 123.516 44.9054 -2.53029
26 195.879 29.03 90.762
0 209.196 24.4924 113.586
0 210.868 24.0347 115.874
0 218.937 31.4785 116.867
0 254.937 20.5815 169.402
0 247.599 35.113 147.062
26 289.499 56.1192 180.073
0 297.039 67.5016 178.627
26 259.241 -161.462 312.496
26 261.915 -162.486 314.935
26 302.074 -126.417 330.579
26 148.936 -83.177 119.912
26 154.856 -79.3539 126.256
26 177.029 -67.1469 139.66
26 62.6604 -32.0561 -18.2543
26 162.209 -61.8782 122.4
0 71.466 -17.9128 -19.3075
0 73.6668 -16.6873 -15.269
0 74.9802 -14.1767 -15.7267
0 79.109 -14.2647 -13.3603
0 217.53 -49.286 173.762
0 80.9512 -10.0709 -12.067
0 221.47 -41.7542 172.388
0 105.023 -1.26755 6.31141
0 105.911 -2.55268 10.8076
26 87.734 8.3588 -21.3313
0 107.65 3.75365 5.39602
26 90.127 35.1279 -39.4399
26 117.394 29.8741 -2.75069
0 118.754 32.2857 -4.21374
26 277.682 -11.7606 214.775
0 174.46 18.8646 73.0265
26 191.809 15.968 93.9697
0 177.446 20.9175 74.8564
26 113.954 44.5471 -18.1472
26 119.668 43.8197 -10.8452
0 178.4 26.3964 71.6534
0 183.417 25.0233 78.5161
26 232.638 12.7453 143.523
26 194.761 30.6769 88.6009
26 235.702 18.5911 142.497
0 220.865 30.165 115.195
0 221.752 28.8799 119.691
0 222.707 34.3588 116.488
0 225.164 34.7285 116.567
0 220.677 37.7848 111.455
0 224.021 36.8694 116.031
26 218.244 44.537 100.933
26 263.843 35.8563 161.606
26 252.953 -167.902 304.172
26 150.263 -66.2967 103.335
26 60.3064 -32.8911 -26.2399
26 63.3078 -31.2598 -20.4266
0 75.5948 -18.0008 -16.9411
0 75.2362 -15.0325 -19.6863
0 76.9082 -15.4902 -17.3988
0 77.3344 -11.6945 -22.3527
0 196.578 -42.5084 141.815
0 197.891 -39.9978 141.357
0 216.284 -45.0326 166.52
0 103.181 -5.46134 5.01815
0 104.853 -5.91905 7.30571
26 237.495 -39.8638 188.104
0 104.136 0.0175698 1.81521
0 107.548 5.86619 -1.30883
0 109.748 7.09167 2.72967
0 112.375 12.1129 1.81428
26 118.604 27.4758 -4.31249
26 196.07 14.2518 94.7108
26 200.541 19.8727 94.5363
26 200.39 20.3969 96.7264
26 113.658 48.1261 -26.3019
26 234.731 13.2176 140.228
26 234.199 16.5672 137.18
0 219.023 25.9712 113.902
0 224.635 33.0453 114.816
26 219.455 42.5618 101.603
0 267.934 56.6767 143.716
0 278.732 67.0291 150.499
0 151.097 -79.6365 113.61
26 60.637 -34.6243 -24.8082
26 62.7372 -33.0597 -25.8088
26 155.185 -52.0037 92.8581
26 189.927 -61.089 142.061
0 76.9941 -20.9975 -20.3641
26 64.1866 -2.39748 -48.7549
26 99.8704 -0.717797 -11.482
26 99.1661 -1.49919 -9.3565
26 98.0073 2.44647 -16.119
26 97.1544 1.59342 -13.9258
26 98.7572 1.40872 -12.0754
26 100.056 0.632049 -8.71856
0 109.646 9.20421 -3.97517
26 207.648 -17.4802 127.285
26 100.866 18.7437 -25.5509
26 101.392 20.547 -23.6381
26 249.826 -19.7549 180.459
26 196.505 12.1206 94.1179
26 236.381 15.4901 137.552
26 139.367 51.0966 -3.83752
0 229.907 30.8164 117.719
0 231.579 30.3587 120.007
0 234.036 30.7284 120.086
26 247.008 26.8965 141.408
0 276.788 64.9479 142.501
0 283.646 67.7686 150.657
0 285.318 67.3109 152.944
0 290.334 65.9377 159.807
0 282.4 72.022 143.415
26 190.946 -73.9615 151.501
0 195.18 -55.1778 140.301
0 77.0616 -14.2334 -28.0632
0 81.1904 -14.3214 -25.6968
0 77.4877 -10.4377 -33.0171
26 100.59 0.0376873 -13.5201
0 113.605 4.46472 -0.614412
0 114.918 6.97533 -1.07211
26 99.8712 16.3817 -25.1103
26 99.5082 19.2263 -27.7357
26 104.805 18.9123 -22.9914
26 104.456 21.7741 -25.6298
0 237.569 22.1932 128.4
26 247.176 26.2685 137.395
0 238.591 34.4362 117.498
26 252.217 31.2922 136.652
26 251.443 30.4467 138.892
26 253.889 30.9201 138.877
0 239.904 36.9468 117.041
0 282.588 64.4022 147.155
0 285.045 64.7719 147.234
0 284.261 63.9445 149.442
0 283.902 66.9128 146.697
0 285.574 66.4551 148.985
0 291.375 65.9094 153.639
0 292.688 68.42 153.181
0 278.169 74.2225 134.344
0 290.299 74.8143 145.403
26 58.2178 -43.4711 -35.4805
26 188.743 -60.1467 130.543
0 74.3321 -17.1421 -33.8527
0 76.0716 -10.8358 -39.2643
0 80.3706 -6.27226 -37.8921
0 82.0426 -6.72997 -35.6046
0 82.9974 -1.25105 -38.8075
26 130.215 -4.38549 20.5462
0 98.6912 22.1121 -36.6007
0 241.357 12.8022 132.755
0 232.876 29.4746 109.879
0 237.107 27.2741 118.95
0 238.062 32.753 115.747
26 253.9 30.5606 134.831
26 252.678 32.4789 134.3
26 256.459 30.9766 135.056
26 256.346 31.3458 139.033
26 258.496 30.1488 137.659
26 222 66.1652 68.5138
0 290.608 52.8107 160.581
0 285.66 60.9478 146.019
0 272.812 66.2927 129.47
0 280.285 65.2893 136.411
0 284.516 63.0887 145.483
0 286.189 62.631 147.77
0 289.533 61.7156 152.345
0 291.205 61.2579 154.633
26 310.511 57.114 178.559
0 281.599 67.7999 135.954
0 285.83 65.5993 145.025
0 287.502 65.1416 147.313
26 309.259 59.487 175.6
26 311.647 59.5132 178.386
26 315.167 62.1475 178.055
26 266.521 85.5453 104.634
26 308.674 -147.316 329.781
0 170.136 -72.8548 115.456
26 79.2078 -44.2509 -10.525
26 226.462 -69.4735 174.005
26 183.337 -54.6819 114.064
26 115.314 -27.1388 15.2193
0 80.2004 -10.9238 -36.8978
0 76.9239 -3.24431 -49.1721
0 78.5959 -3.70201 -46.8845
0 84.9254 -2.56453 -40.4795
26 90.5231 17.2529 -45.9499
26 224.138 -3.87238 122.221
26 113.843 33.0665 -36.351
26 163.187 24.7692 32.0718
26 256.996 30.0104 131.224
26 259.505 32.4551 136.875
0 290.864 51.9549 156.622
0 281.258 58.4969 137.942
26 329.38 47.9036 204.255
26 311.225 55.6101 176.748
26 303.066 59.1075 163.573
26 310.42 57.5154 174.638
26 312.684 58.5337 174.549
0 294.087 65.4233 149.758
26 314.807 60.2362 176.042
26 293.565 83.0505 132.868
26 282.549 87.9263 118.674
0 165.923 -82.9255 111.118
0 183.836 -70.6081 122.097
0 177.318 -64.1258 111.953
0 84.5852 -11.8675 -38.4909
26 229.223 2.93149 115.205
26 276.036 -9.94316 179.461
26 227.035 5.90432 111.972
26 234.435 24.7101 106.913
0 251.354 18.9326 132.077
26 259.376 30.5556 131.249
26 308.649 39.8376 181.762
0 293.747 56.1203 151.747
26 315.257 56.4152 175.517
0 287.655 66.3984 136.648
26 314.965 58.6569 173.833
26 293.912 80.9517 132.16
26 332.853 73.4142 183.289
0 167.851 -84.239 109.446
0 170.478 -79.2178 108.531
0 166.775 -75.3341 101.21
0 168.447 -75.7918 103.498
0 163.073 -71.4503 93.8901
0 168.617 -71.1403 102.504
0 170.289 -71.598 104.791
0 172.388 -68.26 102.125
26 81.2809 -30.753 -30.0084
26 230.99 -44.559 152.299
26 243.317 -13.1805 139.541
26 242.224 -11.1368 138.956
0 212.32 8.74129 90.145
26 232.452 4.69827 112.756
26 326.878 52.4094 185.4
0 170.375 -77.1052 101.826
0 179.264 -77.7106 115.015
0 172.285 -66.1474 95.4201
26 166.847 -62.1474 88.4798
26 64.1141 -29.462 -54.3124
26 227.47 5.02548 104.425
26 134.725 44.0926 -33.3448
0 245.895 13.1152 120.498
0 247.209 15.6258 120.04
0 248.881 15.1681 122.328
26 301.822 71.5215 137.895
26 55.8392 -57.3052 -50.8689
0 176.961 -76.8235 104.271
26 179.722 -46.2875 85.9534
26 103.146 -15.4118 -26.6746
0 293.439 62.458 131.632
26 168.071 -89.7798 101.695
0 173.447 -80.5596 100.691
26 96.6426 -32.2587 -29.6958
26 88.8496 -14.1862 -52.6328
26 210.708 -27.1379 100.494
0 107.462 4.5586 -44.7233
0 242.772 22.0515 97.5591
26 179.987 46.0936 8.7014
26 317.66 70.0838 148.663
26 166.83 -97.8384 99.1977
26 97.818 -34.2399 -29.2432
26 105.303 3.98163 -53.1535
26 105.744 6.21669 -53.0732
26 106.193 7.94229 -51.4062
26 213.913 -6.80385 85.8919
26 99.5973 38.2178 -85.1399
0 248.044 19.8226 100.462
26 265.191 25.7202 114.365
26 205.526 57.1514 20.987
26 239.683 -57.6952 150.491
26 87.5319 23.9006 -90.241
26 102.389 35.7098 -86.2
26 100.283 38.9725 -87.3351
0 247.157 21.1077 95.966
0 250.501 20.1923 100.541
26 311.425 32.0666 160.16
26 185.354 -73.8772 90.4669
26 174.562 -65.4675 74.0761
26 100.581 -21.218 -48.4409
26 99.4073 -20.225 -45.6146
26 123.854 7.91592 -42.3696
0 103.98 16.4631 -70.4072
0 241.083 19.1144 85.6014
0 113.435 -7.00163 -45.9998
0 107.41 10.0404 -68.7974
26 104.838 25.8853 -84.4262
26 104.016 25.0916 -82.2484
26 93.3042 -86.3252 -12.9256
26 183.653 -84.6351 89.7559
0 251.031 6.20945 97.3558
26 323.643 81.5768 120.604
0 113.485 -3.63232 -63.3691
26 141.263 -0.0345187 -35.3511
26 148.686 19.0638 -40.4812
26 106.169 -22.3654 -60.8161
0 124.079 10.9452 -69.996
0 122.218 19.0227 -76.0231
26 133.923 29.1491 -71.8486
26 246.206 9.91737 72.8242
26 115.957 -14.2268 -64.5278
0 121.112 -3.37895 -67.092
0 130.597 4.46292 -59.8515
0 114.831 14.5189 -85.93
26 269.723 10.778 94.5827
26 303.3 6.97994 138.581
26 265.255 33.7604 73.5843
0 126.195 2.01196 -67.9285
0 133.668 1.00856 -60.9869
0 109.116 9.55733 -93.5493
0 119.812 22.0223 -93.4713
26 277.945 -1.88717 107.664
26 271.976 6.53087 95.5126
26 271.136 7.96292 93.0061
26 113.615 -26.3778 -66.1785
26 113.821 -28.0705 -64.6142
0 134.641 -5.78383 -59.456
0 136.313 -6.24153 -57.1685
0 119.763 2.98702 -81.0383
0 122.22 3.35673 -80.9594
0 121.435 2.52931 -78.7508
0 127.236 1.98361 -74.0967
0 128.908 1.52591 -71.8092
0 121.077 5.49762 -81.496
0 122.749 5.03991 -79.2085
0 126.093 4.1245 -74.6333
26 151.22 -1.11927 -45.3648
0 122.39 8.00822 -81.9537
0 124.062 7.55052 -79.6662
0 128.191 7.46252 -77.2997
0 129.078 6.1774 -72.8035
26 271.389 -6.10592 97.1617
0 142.831 -12.7239 -47.024
0 144.571 -6.41752 -52.4355
0 122.476 2.50096 -84.919
0 121.691 1.67354 -82.7104
0 123.363 1.21584 -80.4228
0 129.164 0.670138 -75.7688
0 130.836 0.212432 -73.4812
0 123.789 5.01156 -85.3767
0 123.005 4.18415 -83.1681
0 124.677 3.72644 -80.8805
0 124.318 6.69475 -83.6257
0 131.006 4.86393 -74.4755
26 155.157 0.343459 -44.3628
0 116.384 12.779 -100.017
0 116.554 17.4305 -101.012
0 270.14 4.08923 86.5659
0 277.783 7.73732 92.5132
0 141.483 -6.35788 -60.9703
0 134.436 -1.55875 -72.8657
0 113.673 -2.40096 -101.073
26 119.559 1.90539 -96.4182
26 261.282 0.452474 68.0698
0 274.95 6.9412 80.0189
26 103.125 -28.2506 -96.7997
0 280.649 8.50804 77.9681
26 112.836 7.56194 -117.21
0 132.815 2.26827 -92.5226
26 125.765 13.0197 -107.758
26 126.86 11.2709 -105.325
26 279.912 10.522 69.1514
26 114.937 -22.5452 -99.8739
26 115.435 -20.2945 -98.7556
0 150.799 -18.8335 -57.6717
26 160.567 -19.3399 -46.0433
0 278.108 -2.02043 75.9182
0 279.421 0.490171 75.4605
26 117.435 -21.0962 -103.105
26 116.758 -21.7606 -100.983
26 138.287 7.02294 -100.144
26 140.818 6.3865 -97.6616
26 140.396 9.83147 -100.77
26 269.942 -19.9589 72.0621
26 104.34 -21.1659 -118.05
26 141.897 8.69256 -98.835
26 146.525 19.9832 -104.287
0 280.292 -4.18967 70.2865
26 278.948 -18.474 73.8166
0 284.609 -11.8975 76.3925
26 138.889 -19.942 -94.1263
26 157.246 -27.2906 -63.2189
0 284.506 -9.78493 69.6877
26 133.783 -30.8629 -96.3059
0 143.666 0.324038 -108.045
26 282.124 4.61487 51.8832
0 290.819 -12.0422 66.4225
26 299.862 -6.11551 74.6512
26 161.577 -18.9236 -80.9787
0 300.56 -5.05606 69.7034
26 183.038 -21.8726 -58.784
0 296.876 -13.4436 67.1169
26 304.418 -20.8507 75.5906
26 305.532 -22.5183 77.8674
0 298.804 -14.7571 65.4449
26 301.842 -4.32658 54.5309
0 143.224 -22.5324 -117.698
26 298.932 -30.0403 68.2086
26 301.042 -31.1322 68.5427
0 300.818 -21.5779 60.8075
26 298.062 27.1082 23.0694
26 286.877 -32.2196 48.1766
0 302.746 -22.8913 59.1355
26 150.643 -13.1109 -130.248
0 304.674 -24.2048 57.4634
0 300.186 -21.1485 52.3517
0 301.858 -21.6062 54.6393
26 301.46 -17.0305 46.8563
26 300.35 -14.9772 46.3054
26 309.132 -13.1756 53.8198
26 150.843 -13.4677 -132.528
0 299.215 -30.0221 45.8845
0 305.544 -28.8846 52.2895
0 307.386 -24.6909 53.5828
26 302.064 -38.3436 49.306
26 322.616 -28.1267 65.3214
26 136.816 -53.361 -134.37
26 173.291 -56.4344 -87.0978
0 148.651 -39.1706 -130.396
0 148.821 -34.5191 -131.39
26 144.157 -53.5496 -128.168
26 297.568 -43.6982 33.7733
0 153.292 -40.9701 -135.948
0 322.196 -31.3746 41.4208
26 173.552 42.2544 -188.911
0 162.129 -36.0936 -146.834
0 165.643 -32.3575 -143.253
26 170.921 -22.9339 -144.47
0 329.463 -28.1529 34.9526
26 331.528 -17.809 30.112
26 161.468 -48.2783 -147.926
26 160.577 -35.1934 -155.48
0 170.284 -34.157 -148.806
0 173.798 -30.421 -145.225
26 331.118 -20.8898 29.8933
26 337.566 -7.39457 24.0697
0 175.812 -37.2417 -149.862
0 171.325 -34.1854 -154.974
26 326.361 -59.1144 44.5825
26 339.901 -43.725 46.7609
0 331.119 -32.0053 27.57
0 332.791 -32.463 29.8576
0 176.683 -41.9215 -155.036
0 178.883 -40.6961 -150.998
26 346.326 -61.4458 58.3478
26 182.958 -46.2058 -146.931
26 175.347 -41.2224 -168.323
26 174.604 -41.981 -166.179
26 188.034 -45.3743 -150.472
0 346.918 -42.0867 26.6091
0 347.703 -41.2593 24.4004
0 349.375 -41.717 26.688
26 358.067 -45.1255 33.0524
0 350.057 -38.777 17.7745
26 198.589 -71.6858 -136.772
26 332.086 -49.5788 1.90734
0 353.231 -44.3439 23.3439
0 355.159 -45.6574 21.6719
0 352.788 -51.5344 18.6277
26 364.72 -56.0269 24.1826
26 367.09 -52.8248 25.0497
26 378.384 -33.0083 22.4821
26 163.829 -80.0029 -202.698
26 358.816 -54.4803 1.8937
