ITEM: TIME
40.0
ITEM: TIMESTEP
0
ITEM: NUMBER OF ATOMS
764
ITEM: BOX BOUNDS pp pp pp
-342.636 342.636
-342.636 342.636
-342.636 342.636
ITEM: ATOMS type x y z
26 7.39617 29.3311 -105.621
26 42.9677 32.8994 -90.0453
26 51.6803 53.966 -81.4536
26 19.2067 40.1631 -73.406
26 63.4169 45.4758 -78.6275
26 42.0943 62.0621 -60.2845
26 19.8995 34.6551 -66.4784
26 61.6231 94.6695 -45.057
0 45.783 27.8938 -66.5173
0 45.018 45.404 -58.5465
26 16.6889 68.3511 -45.7399
0 48.125 37.4074 -59.2856
0 44.5873 34.789 -56.9737
0 39.9665 35.6398 -57.7357
0 44.5044 24.2327 -60.1477
0 51.56 38.791 -54.2439
0 37.9328 44.8282 -48.659
26 82.2423 31.9774 -59.4621
0 55.25 34.3379 -51.8591
0 49.1982 38.5991 -50.948
26 89.51 26.8015 -57.7693
0 68.6222 34.1375 -54.787
0 29.3535 27.7848 -50.8001
0 68.8673 32.9616 -52.1802
0 68.2744 34.0788 -50.0403
0 66.2604 33.9455 -51.4912
26 81.8728 27.14 -51.3204
0 68.5195 32.9028 -47.4334
26 51.785 48.1541 -39.8473
26 -24.5081 28.2621 -39.959
0 65.3197 35.004 -44.6045
26 99.503 30.4644 -49.0603
0 72.0374 44.8428 -39.2178
26 38.9395 25.206 -41.0065
26 69.7405 49.7473 -33.7813
26 59.8387 18.5285 -45.1931
0 28.648 32.3281 -36.0428
26 80.2487 31.1744 -42.2057
26 33.0267 7.95051 -41.3741
0 40.1487 29.5839 -30.4613
0 35.5279 30.4346 -31.2232
26 34.4287 104.991 1.72029
26 44.1324 105.101 2.46486
0 38.0925 118.444 8.23675
0 48.8479 123.889 11.2616
0 31.9902 27.8163 -28.9113
0 36.1381 105.344 13.5723
0 33.2762 112.165 16.9182
0 40.2588 111.506 14.3843
26 26.0793 117.224 19.0476
0 39.1152 24.7469 -21.4848
0 36.5083 25.7309 -20.7958
0 42.305 27.3065 -19.0499
26 29.4419 75.3297 1.35961
26 21.9211 102.219 15.0819
0 36.3832 104.168 16.1791
26 58.7643 14.7443 -22.2604
26 22.2706 46.9168 -5.79002
0 38.9801 107.845 20.7539
0 40.1561 110.271 21.7379
26 59.6359 12.4793 -21.8671
26 30.8027 0.323296 -20.6142
0 21.5196 17.5507 -12.0153
26 3.79822 -78.839 -52.3733
26 31.2226 -1.3876 -17.3573
26 32.6999 0.369174 -19.1699
0 31.5831 55.7224 7.41801
0 31.8282 54.5464 10.0249
26 34.1301 67.3197 15.4821
26 43.4254 116.117 35.1203
0 34.2692 32.4499 2.98794
0 35.528 45.4326 7.14587
0 38.7017 90.1585 27.0233
0 42.5899 22.4852 0.87088
26 -0.536229 60.0469 20.2653
26 31.7935 7.00764 -2.65483
0 0.886462 0.72352 -0.284092
0 11.8969 0.331148 0.0838166
0 18.2865 0.789544 -0.310193
26 22.973 7.07241 -0.393524
26 56.799 15.048 0.127881
0 28.9528 33.1832 11.7195
26 22.0643 52.8337 23.5667
26 36.7265 73.5121 28.3395
26 21.0162 120.743 54.28
0 54.8556 2.23076 -1.51832
26 23.7356 25.1934 12.6017
26 33.5957 25.0969 11.6543
26 25.4081 52.5774 24.7546
0 40.1093 63.225 28.9629
26 10.8205 0.821522 4.28326
26 41.1551 20.8074 12.8815
26 31.1304 59.3508 30.4822
0 32.5338 65.001 33.6367
0 33.1998 79.1009 39.9345
26 17.7857 84.7787 42.1931
26 40.2178 92.4991 44.5368
26 61.5953 93.7795 43.0724
26 44.7059 102.483 50.1422
0 56.1838 -2.41428 4.16229
0 52.146 1.98007 6.52424
26 101.609 -6.0251 -1.75792
26 47.4599 48.5152 27.1999
26 53.2223 56.8689 31.1781
0 30.1721 64.8091 36.9325
0 39.7615 63.1663 33.7096
0 46.2241 78.8417 41.7533
0 68.3702 -0.380278 5.51417
0 77.9497 2.63772 7.55504
0 35.0479 58.1215 35.0375
0 30.1622 69.4699 42.1963
0 34.5379 69.795 40.3513
0 42.9415 70.3866 41.4082
0 56.346 -14.1465 3.59517
0 78.5327 6.1813 10.6789
0 40.8347 64.358 42.0471
0 46.1313 72.9462 43.8431
26 49.2302 83.4872 49.7397
26 133.409 -90.3271 -32.4651
26 69.2916 -26.0353 0.952916
0 77.009 3.6962 14.4417
26 32.2965 60.5826 42.5509
26 114.829 -38.0597 -7.30898
26 329.178 -150.061 -73.1354
26 80.9515 -24.1546 7.20048
26 61.4357 49.139 40.2097
26 70.4333 49.828 40.546
26 99.4481 -70.8522 -12.6652
0 69.1848 -26.1966 9.5936
26 98.5152 -96.9716 -20.2793
26 94.0752 -84.9935 -15.2574
26 304.404 -132.47 -57.525
26 9.17755 38.815 48.4754
26 308.252 -142.769 -57.8546
26 56.0334 -39.4127 11.9105
0 95.6607 -48.9447 4.74341
26 141.863 -85.1074 -13.5765
26 86.293 -59.8763 3.09191
26 306.028 -107.638 -39.1221
26 78.8346 -19.8663 22.6318
0 136.529 -95.2401 -13.6624
26 134.22 -82.7571 -10.1785
26 77.1603 -21.1251 23.6311
26 138.216 -100.969 -13.9342
26 102.785 -75.6935 1.46203
26 328.719 -153.768 -54.9213
26 295.601 -133.835 -43.6343
26 64.8965 36.7436 56.648
0 95.3922 -71.2919 5.74906
26 121.168 -45.5287 15.784
26 136.059 -102.412 -8.11415
0 88.6547 -71.809 10.8898
26 95.6493 -64.0265 14.6372
0 314.103 -143.45 -44.2054
0 87.3959 -84.7917 6.73188
0 83.3581 -80.3973 9.09383
0 86.548 -77.8377 11.5287
0 83.6861 -71.017 14.8746
0 318.641 -154.857 -46.6174
0 138.347 -102.237 -2.76812
0 317.372 -163.178 -45.5116
26 336.352 -161.169 -45.7759
26 334.38 -161.05 -47.7224
26 154.883 -93.0772 -1.02804
0 86.876 -68.4574 17.3095
0 83.6762 -66.3562 20.1384
26 65.5706 -58.4739 24.5782
0 319.469 -152.489 -40.8867
0 320.645 -150.063 -39.9028
0 316.024 -149.212 -40.6647
0 140.772 -82.1672 7.63755
0 314.593 -145.801 -38.9917
0 311.987 -144.817 -38.3027
26 164.632 -88.0082 2.07428
0 126.39 -63.2806 15.9294
26 334.391 -163.067 -44.7775
0 139.841 -85.7695 9.26041
26 164.445 -90.3294 3.97733
0 143.369 -78.4904 12.2123
0 147.745 -78.1652 10.3674
0 141.428 -63.4066 19.1991
0 308.028 -162.712 -39.6819
0 86.1903 -73.2356 21.5392
0 319.121 -152.548 -36.14
0 148.245 -85.1779 10.3173
0 143.031 -83.2099 11.6953
26 193.001 -80.9831 7.1563
26 371.648 -222.459 -67.0643
26 383.689 -214.693 -64.6566
0 87.8663 -77.822 22.4731
0 149.328 -88.647 13.3911
0 143.276 -84.3859 14.3021
26 204.407 -90.5354 6.55407
0 134.691 -63.9237 24.3399
26 136.097 -58.2497 27.625
26 370.396 -219.515 -64.1041
0 317.005 -153.916 -30.2373
26 292.79 -132.016 -15.7709
26 239.685 -91.3307 6.0755
26 186.177 -69.2633 20.1529
26 179.503 -162.864 -17.4052
26 88.9166 -91.2204 24.9906
26 225.168 -117.233 -2.70693
26 181.936 -87.7864 16.2481
26 168.854 -84.8208 20.3824
26 342.848 -230.739 -61.9052
26 357.621 -212.798 -52.7664
26 84.3933 -78.9109 31.8045
0 320.94 -159.545 -25.2457
26 293.225 -116.757 -3.28594
26 287.896 -184.361 -31.1065
26 212.924 -94.4425 16.6661
0 364.259 -232.597 -55.9522
26 313.899 -158.624 -17.1007
26 338.599 -153.868 -20.5027
26 327.272 -148.072 -15.0218
26 370.196 -255.343 -63.5953
26 198.496 -173.524 -11.3095
26 380.677 -226.785 -52.4636
26 238.339 -143.609 -1.77843
26 148.863 -110.449 21.8082
0 182.747 -93.4107 27.0621
0 353.146 -233.44 -48.9665
0 370.556 -238.034 -54.2564
26 305.262 -198.774 -31.2302
26 349.689 -202.865 -33.9772
26 361.185 -258.503 -57.7834
0 363.818 -238.552 -49.1157
0 356.919 -227.336 -43.4078
0 352.881 -222.942 -41.0458
26 83.4876 -81.37 47.4122
26 198.845 -122.504 18.725
26 194.319 -93.7589 31.4136
26 192.185 -94.5799 31.2378
0 221.247 -102.393 24.1309
26 193.4 -76.9197 40.63
0 244.132 -152.298 2.62729
0 345.551 -222.342 -33.7652
0 228.653 -158.126 6.19411
0 242.025 -158.326 3.26619
26 318.009 -175.679 -10.7857
0 203.817 -88.4762 39.9483
26 193.816 -82.1841 44.5156
0 204.738 -80.213 43.5892
0 202.131 -79.229 44.2782
26 282.825 -186.17 -8.4326
0 228.372 -105.462 31.5574
26 361.785 -152.626 -3.06431
0 245.189 -108.94 28.4074
0 347.217 -222.268 -27.5675
0 337.71 -210.068 -21.1707
0 229.736 -161.595 9.26788
26 323.961 -182.686 -7.59982
26 183.277 -87.9175 48.4583
0 187.49 -87.3505 48.3119
0 197.08 -88.9933 45.089
26 213.383 -190.36 3.40225
0 330.728 -209.41 -18.6368
26 329.831 -198.043 -14.2925
0 250.737 -139.033 20.6314
26 242.9 -108.931 37.3723
26 334.385 -220.505 -18.4931
0 275.792 -163.031 12.1904
26 242.921 -111.862 35.9621
26 231.942 -106.8 41.0225
26 336.285 -231.54 -22.8857
26 328.812 -210.13 -10.1395
0 308.084 -193.525 -1.4414
0 251.399 -157.778 20.0142
0 248.792 -156.794 20.7032
0 260.396 -158.303 18.9312
0 272.592 -160.93 15.0193
0 269.392 -158.829 17.8482
0 273.768 -158.504 16.0033
0 274.944 -156.077 16.9873
26 246.236 -130.828 30.0801
26 245.776 -130.194 33.8143
26 234.588 -107.258 43.8476
0 225.06 -99.9346 47.0036
0 325.328 -219.233 -13.0792
26 327.081 -211.49 -9.02473
26 342.391 -211.589 -10.4544
0 303.454 -188.014 3.06045
0 316.233 -187.097 2.27243
0 251.061 -162.497 19.4972
0 248.455 -161.513 20.1862
0 256.02 -158.628 20.7761
0 252.82 -156.527 23.605
0 250.213 -155.543 24.294
0 256.603 -155.085 23.9
0 251.389 -153.117 25.278
0 246.769 -152.266 24.5161
0 238.948 -149.314 26.583
0 257.779 -152.658 24.884
0 255.765 -152.792 23.4331
0 258.955 -150.232 25.8679
0 256.941 -150.365 24.417
0 245.312 -102.029 48.8954
0 242.705 -101.045 49.5843
0 248.107 -161.572 24.9329
0 240.879 -159.737 24.86
0 231.035 -152.258 30.7398
0 315.63 -181.319 9.67609
0 254.241 -155.277 27.1958
0 258.024 -153.834 27.4908
0 256.01 -153.968 26.0399
0 259.2 -151.408 28.4748
0 257.186 -151.541 27.0239
0 226.503 -178.356 20.973
0 234.142 -160.254 30.0007
0 273.582 -170.295 20.1829
0 252.728 -162.423 25.6948
0 252.135 -161.305 27.8347
26 294.118 -174.71 17.4188
0 253.903 -159.996 26.6788
0 253.311 -158.879 28.8187
26 297.883 -173.41 17.634
0 255.079 -157.57 27.6628
0 254.486 -156.453 29.8027
26 298.26 -169.799 20.554
0 258.269 -155.01 30.0976
0 256.255 -155.144 28.6467
0 259.445 -152.584 31.0816
0 257.431 -152.717 29.6307
0 262.39 -148.848 30.9096
0 231.452 -169.827 27.5157
0 234.642 -167.267 29.9506
0 232.628 -167.4 28.4997
26 301.604 -183.546 17.0848
0 252.973 -163.599 28.3017
0 252.38 -162.481 30.4416
0 249.773 -161.497 31.1305
26 298.721 -177.036 20.3859
0 254.149 -161.172 29.2856
0 253.556 -160.055 31.4255
26 297.425 -173.514 22.0747
0 255.324 -158.746 30.2696
0 254.732 -157.629 32.4095
26 294.634 -171.349 20.5342
0 256.5 -156.319 31.2536
0 255.908 -155.202 33.3935
0 257.676 -153.893 32.2375
0 220.332 -133.163 46.6802
26 184.954 -64.5519 80.9447
26 231.674 -187.961 21.6976
26 232.6 -187.922 24.7377
26 319.205 -214.756 2.1002
26 304.432 -185.866 18.8735
26 301.918 -184.863 19.738
0 243.628 -163.132 34.1314
26 299.22 -182.562 17.9719
0 255.232 -164.641 32.3594
0 252.625 -163.657 33.0484
0 244.804 -160.705 35.1154
26 297.773 -179.374 19.553
26 299.062 -178.066 22.9527
0 262.214 -165.3 29.8255
0 253.801 -161.231 34.0324
26 298.233 -175.79 22.483
26 297.627 -174.584 24.5809
0 254.977 -158.805 35.0163
0 249.763 -156.837 36.3943
26 296.74 -172.258 24.0952
0 258.759 -157.362 35.3113
0 256.153 -156.378 36.0003
0 254.139 -156.511 34.5494
0 260.528 -156.053 34.1554
26 290.031 -116.814 50.6447
26 234.725 -212.684 14.2146
0 248.759 -175.656 29.5795
26 304.462 -190.404 18.4246
0 253.718 -171.787 30.8584
26 305.334 -188.15 19.3422
26 304.769 -186.886 21.4159
26 302.243 -185.876 22.2119
0 256.908 -169.228 33.2933
26 299.427 -183.969 20.5336
26 298.921 -182.765 22.61
0 316.61 -186.023 20.1034
26 299.956 -180.375 23.3421
26 299.353 -179.155 25.4751
26 294.812 -178.384 24.9783
0 249.425 -161.556 35.8773
26 296.524 -177.093 23.7586
26 297.913 -175.718 27.1321
26 295.4 -174.737 27.9239
0 257.829 -160.965 36.9342
0 250.601 -159.13 36.8612
26 297.071 -173.441 26.6748
26 292.648 -172.619 26.1615
0 251.777 -156.703 37.8452
0 249.17 -155.719 38.5342
26 298.088 -171.084 27.6356
0 251.522 -150.867 40.5021
26 329.742 -156.641 30.4789
26 219.716 -102.591 66.0844
0 239.087 -184.569 29.6284
0 248.156 -169.878 36.9831
26 303.801 -189.38 20.6286
26 305.058 -188.108 24.0796
0 244.711 -166.601 37.2052
26 303.594 -184.563 25.7818
26 299.128 -183.956 25.1875
26 296.544 -182.952 25.876
26 298.254 -181.649 24.6745
26 295.67 -180.672 25.4286
26 297.05 -179.292 28.8109
0 254.291 -163.583 39.246
0 249.67 -162.732 38.4841
26 294.227 -177.21 27.0647
26 293.585 -176.059 29.1405
0 255.467 -161.156 40.23
0 250.253 -159.189 41.608
26 292.032 -172.587 30.801
0 259.843 -160.831 38.3851
0 246.808 -155.911 41.83
0 273.039 -177.483 34.373
0 257.991 -172.697 36.3671
0 254.791 -170.596 39.1959
0 244.957 -167.777 39.812
26 301.916 -185.952 27.0338
26 299.337 -185.005 27.735
26 296.79 -184.05 28.4171
0 251.346 -167.318 39.418
26 297.889 -181.558 29.2845
26 297.277 -180.408 31.3515
26 292.778 -179.643 30.8426
0 244.109 -160.823 44.6088
26 296.433 -178.123 30.8746
26 293.922 -177.23 31.7324
26 294.847 -174.952 32.574
0 249.067 -156.954 45.8878
0 253.443 -156.629 44.0429
0 245.367 -147.84 48.7668
26 265.867 -125.083 57.9117
26 236.155 -90.9733 76.1166
26 245.97 -204.077 27.436
26 308.598 -193.261 26.156
26 306.649 -191.455 28.8759
26 300.34 -188.42 30.6709
26 300.182 -187.28 28.2394
26 297.643 -186.314 28.9437
26 297.062 -185.163 31.0004
26 294.498 -184.159 31.621
26 296.196 -182.878 30.4827
26 293.646 -181.927 31.229
26 293.051 -180.832 33.3133
26 290.468 -179.961 34.2223
0 262.602 -168.887 42.3927
0 247.554 -164.1 44.3868
26 294.105 -178.303 34.1308
0 248.729 -161.674 45.3707
0 249.312 -158.13 48.4946
0 250.488 -155.704 49.4786
0 245.868 -154.853 48.7167
0 318.605 -176.568 32.0819
26 299.859 -187.299 32.8721
26 297.212 -186.217 33.6202
26 295.719 -182.908 35.1914
26 293.298 -181.951 35.7968
26 292.526 -180.842 37.8238
0 327.763 -188.826 30.4318
0 325.156 -187.842 31.1207
0 255.947 -158.848 50.7074
0 237.404 -245.673 14.8644
0 246.728 -236.818 19.5622
0 258.159 -221.935 23.6211
0 302.96 -203.509 29.3008
26 298.062 -188.53 34.1341
26 260.254 -171.294 48.5748
26 258.407 -166.168 49.6199
26 223.483 -221.188 32.0309
26 194.97 -188.919 48.5754
0 266.043 -205.009 35.2556
0 258.222 -202.057 37.3226
0 320.87 -215.116 23.9608
26 277.138 -193.898 38.3808
26 262.342 -169.95 51.4798
0 250.641 -162.775 54.1752
26 187.237 -133.311 74.2566
0 249.283 -144.148 64.2859
0 230.5 -267.302 13.6572
26 277.553 -253.667 13.7253
26 224.774 -219.481 34.1647
0 240.064 -222.118 33.1407
0 281.518 -232.025 24.7738
0 271.757 -213.989 33.8276
0 309.174 -219.502 27.8226
0 299.339 -216.683 28.4387
0 273.271 -206.843 35.3286
0 287.481 -209.337 32.8676
0 279.067 -205.268 37.0745
0 296.477 -209.863 31.7846
0 266.371 -195.628 41.0364
26 280.674 -194.777 39.5619
26 278.83 -195.977 40.7132
26 278.302 -194.658 42.6751
26 276.687 -192.625 40.4779
0 262.661 -181.854 49.1792
0 233.476 -159.356 62.0719
0 242.25 -238.378 28.7607
26 257.429 -224.695 33.5114
0 269.65 -220.018 34.4665
0 295.464 -224.021 30.2335
0 264.519 -207.494 39.0184
0 312.026 -221.662 29.7405
0 265.695 -205.067 40.0024
0 277.299 -206.577 38.2304
0 332.454 -207.304 32.7164
0 307.306 -189.201 43.2472
0 323.613 -181.005 45.411
26 236.004 -117.28 83.1521
26 236.799 -259.812 22.9435
0 259.468 -217.258 39.8293
0 295.709 -225.197 32.8403
0 289.064 -219.819 35.8913
0 286.457 -218.835 36.5803
0 274.016 -215.032 37.8853
0 287.633 -216.408 37.5642
0 307.057 -220.87 33.7253
0 288.809 -213.982 38.5482
0 286.202 -212.998 39.2372
0 308.233 -218.444 34.7092
0 297.806 -214.508 37.4652
0 325.05 -221.921 31.5593
0 295.537 -208.804 38.6712
0 324.03 -198.574 42.187
26 262.752 -174.238 56.7354
26 263.091 -172.277 60.4461
0 243.629 -148.134 72.5004
26 235.359 -116.223 85.2427
26 239.25 -262.287 25.4069
26 236.259 -259.808 25.3248
26 233.765 -259.23 25.4079
26 233.694 -257.169 26.7029
0 262.674 -256.865 24.8216
0 272.336 -243.29 30.0364
0 276.53 -221.911 39.2861
0 273.085 -218.634 39.5082
0 295.116 -224.08 34.9802
0 298.899 -222.638 35.2752
0 277.451 -213.648 42.927
0 281.827 -213.323 41.0821
0 283.003 -210.897 42.0661
0 325.295 -223.097 34.1661
0 321.257 -218.703 36.5281
26 220.807 -181.792 61.709
26 323.068 -182.25 53.6226
26 236.941 -261.783 26.2185
26 236.194 -260.342 28.1373
26 231.96 -258.453 27.8183
26 254.435 -245.468 33.8773
0 293.337 -220.728 41.3999
26 315.717 -228.257 35.1075
0 296.282 -216.993 41.228
26 239.917 -267.992 29.1369
0 228.354 -254.688 35.3512
0 248.954 -256.723 32.4962
26 255.275 -247.737 34.4253
0 281.313 -234.494 39.4809
0 297.875 -232.135 38.9879
0 291.23 -226.757 42.0388
26 351.763 -246.103 27.9536
26 353.305 -247.845 27.5415
26 349.741 -246.895 26.9808
0 283.748 -219.085 44.6228
26 340.556 -218.733 41.0123
26 302.512 -197.587 54.8691
26 368.248 -213.057 41.7772
26 262.236 -116.698 92.1164
26 271.273 -249.262 37.7677
0 298.375 -239.148 38.9378
0 303.927 -236.396 38.0769
0 298.12 -233.311 41.5947
0 290.892 -231.476 41.5218
26 353.693 -252.847 25.1948
26 353.203 -252.03 27.5665
0 297.282 -231.018 41.1278
0 294.675 -230.034 41.8168
26 355.025 -248.119 29.1536
26 354.16 -249.995 28.0722
26 352.873 -246.93 29.71
0 309.806 -224.265 42.9967
26 259.838 -181.209 68.6713
26 258.539 -178.552 69.9188
0 257.981 -153.038 79.9999
26 272.094 -251.51 38.1545
26 225.389 -215.956 58.6497
0 300.134 -233.178 43.0456
0 294.92 -231.21 44.4236
26 260.682 -183.517 68.9969
26 257.835 -182.202 71.6398
26 261.122 -180.082 72.2602
26 259.339 -180.603 70.8152
26 257.925 -177.354 72.0157
26 257.378 -176.281 74.1226
0 264.944 -144.375 87.9935
0 267.889 -140.64 87.8215
26 332.123 -254.296 36.0651
26 262.832 -184.549 73.2147
26 258.781 -184.465 72.0906
26 259.601 -181.728 73.2622
26 261.396 -181.293 74.82
26 258.132 -178.433 74.8436
26 259.867 -177.951 76.4501
26 253.694 -283.815 32.5238
0 293.314 -244.251 45.0124
26 334.249 -256.5 34.8127
0 260.501 -197.423 69.2219
26 261.333 -186.181 74.2422
26 260.723 -185.129 76.3392
26 259.862 -182.917 75.8303
26 261.655 -182.486 77.4021
26 258.393 -179.624 77.4256
26 257.774 -178.642 79.481
26 257.299 -176.235 79.7099
26 291.451 -185.806 70.7048
26 259.602 -173.739 82.6569
26 232.511 -292.175 32.9844
0 293.814 -251.264 44.9623
0 293.559 -245.427 47.6193
26 240.166 -206.032 71.0715
0 278.995 -205.487 67.0058
0 279.323 -196.107 72.7866
0 276.716 -195.123 73.4756
26 263.321 -186.924 78.4563
26 259.254 -186.793 77.3266
26 262.511 -184.702 77.9262
26 259.513 -183.02 80.5198
26 261.07 -181.458 79.4822
26 260.486 -180.385 81.5731
26 259.54 -178.081 81.0177
26 256.947 -176.489 83.7841
26 260.946 -172.443 86.1246
0 271.591 -220.104 65.8487
0 241.058 -183.64 83.5884
26 259.484 -187.953 79.9573
26 258.764 -186.757 82.07
26 260.353 -185.224 81.0493
26 259.753 -184.164 83.1518
26 258.933 -182 82.6395
26 258.344 -180.975 84.7223
26 257.484 -178.824 84.1912
26 259.303 -178.397 85.7291
26 260.873 -176.956 84.8275
26 258.991 -174.251 87.2404
26 251.639 -158.29 96.3977
0 271.581 -215.443 71.1125
0 277.971 -214.985 70.7185
0 278.054 -204.428 73.8924
26 294.934 -204.509 74.7616
26 262.453 -191.768 82.6784
26 259.609 -188.974 82.5905
26 258.963 -187.895 84.7516
26 336.71 -214.843 62.7831
26 260.55 -186.349 83.7005
26 257.485 -184.585 86.2914
26 259.139 -183.133 85.2416
26 258.493 -182.126 87.3141
26 260.032 -180.535 86.4999
26 253.929 -226.192 71.0371
0 270.733 -208.489 75.9093
26 294.707 -206.059 76.4595
26 262.077 -190.642 84.8986
26 259.145 -188.969 87.4284
26 258.331 -186.794 86.8602
26 257.698 -185.686 88.9728
26 259.322 -184.231 87.9242
26 256.574 -182.32 90.4961
26 260.299 -181.669 88.999
26 258.364 -179.108 91.1761
26 310.868 -197.762 78.5613
26 265.739 -119.905 118.678
0 268.289 -219.237 76.0312
26 259.983 -191.199 87.9687
26 261.737 -190.705 89.5862
26 258.508 -187.863 89.5064
26 257.817 -186.789 91.5812
26 259.411 -185.227 90.6773
0 255.155 -182.707 93.7447
26 330.223 -194.027 80.0028
26 327.727 -233.415 67.1083
26 260.668 -194.407 91.4158
26 257.728 -191.559 90.9676
26 257.064 -190.425 93.0893
26 258.665 -188.924 92.1347
26 258.018 -187.747 94.1863
26 257.153 -185.452 93.5958
0 247.07 -169.258 103.732
26 254.699 -154.721 108.756
26 258.706 -194.783 93.9322
26 257.89 -192.6 93.6271
26 257.296 -191.581 95.7341
26 256.479 -189.337 95.2166
26 255.962 -188.361 97.3135
26 257.43 -186.686 96.2734
0 241.773 -177.846 101.936
26 240.799 -206.431 94.6666
26 259.588 -198.8 96.3
26 259.16 -196.483 95.5909
26 260.415 -194.389 95.9632
26 257.667 -192.816 98.2773
26 285.452 -200.593 93.2052
26 256.815 -190.555 97.8639
26 258.562 -190.131 99.4588
26 259.951 -188.424 98.5115
26 231.5 -163.138 113.553
26 260.467 -195.444 99.2705
26 257.926 -189.85 101.798
0 241.926 -184.918 106.633
0 248.908 -185.576 104.099
0 245.699 -178.814 112.192
0 255.45 -192.189 108.402
0 240.985 -183.859 113.52
0 238.378 -182.875 114.209
0 234.933 -179.598 114.431
26 245.653 -157.25 125.913
0 244.43 -187.136 113.298
0 241.23 -185.035 116.127
0 233.409 -182.083 118.193
0 228.789 -181.232 117.432
26 204.261 -170.195 126.268
0 237.109 -191.197 115.315
0 245.513 -190.605 116.371
0 242.906 -189.621 117.06
0 244.42 -182.475 118.561
0 241.813 -181.491 119.25
0 249.796 -196.176 116.616
0 246.096 -187.062 119.495
0 242.896 -184.961 122.324
0 244.072 -182.534 123.308
0 245.841 -181.225 122.152
0 236.752 -186.595 125.325
0 245.748 -187.12 124.242
0 237.928 -184.169 126.309
0 246.924 -184.694 125.226
0 248.1 -182.268 126.21
0 245.493 -181.284 126.899
26 292.029 -193.532 116.205
0 238.01 -173.612 129.483
26 270.496 -213.748 112.242
0 240.197 -189.872 125.103
0 234.983 -187.904 126.481
0 249.193 -190.398 124.02
0 241.372 -187.446 126.087
0 244.562 -184.886 128.522
0 242.548 -185.019 127.071
0 246.331 -183.577 127.366
0 243.724 -182.593 128.055
0 244.39 -168.493 134.353
0 242.383 -206.132 120.723
0 248.517 -199.837 122.986
0 245.4 -187.179 128.989
0 242.793 -186.195 129.678
0 246.576 -184.753 129.973
0 243.969 -183.769 130.662
0 237.325 -178.391 133.713
0 240.432 -186.387 132.974
0 243.029 -182.71 137.548
0 245.626 -179.034 142.123
26 242.209 -164.78 165.451
26 246.822 -182.864 160.763
26 252.447 -157.371 178.874
26 241.378 -149.692 200.761
