ITEM: TIME
40.0
ITEM: TIMESTEP
0
ITEM: NUMBER OF ATOMS
752
ITEM: BOX BOUNDS pp pp pp
-371.189 371.189
-371.189 371.189
-371.189 371.189
ITEM: ATOMS type x y z
26 188.934 29.0778 166.5
26 188.263 24.5331 158.542
26 196.772 5.87663 150.553
26 152.347 22.5164 117.276
0 163.545 -15.0534 131.137
0 164.439 1.96247 124.877
0 167.554 -6.91769 124.872
26 178.453 3.10601 120.729
26 179.408 5.54344 120.259
26 178.244 7.73062 120.465
26 178.446 10.2941 119.21
26 180.579 8.61795 122.17
0 173.921 -12.5692 123.58
0 167.674 -8.26384 118.598
26 177.199 2.80166 116.709
26 177.299 1.63734 118.972
26 179.62 0.992615 120.49
26 173.823 4.10083 117.635
26 178.255 4.1407 118.539
26 179.148 6.72233 118.165
0 170.884 -18.2714 120.806
26 175.117 -2.12881 115.77
0 172.549 -23.9482 118.773
26 197.895 33.1709 108.401
0 189.569 38.157 103.146
0 174.906 -37.7354 123.746
0 177.656 -28.6511 119.88
0 177.155 -22.7955 117.301
0 178.103 -20.1432 116.75
26 162.097 42.8181 82.5941
0 179.458 -22.2191 116.564
0 175.514 -17.3374 110.846
0 180.406 -19.5668 116.013
26 150.089 0.730342 90.4106
26 175.356 22.0236 90.997
0 182.829 -20.3366 109.003
26 210.104 38.9143 100.722
0 182.638 -18.0818 104.577
26 339.19 38.8438 165.959
26 163.07 -42.2789 99.4376
0 -1.08789 -0.601879 -0.489948
0 183.897 -19.0304 102.178
0 175.143 14.5531 84.3017
0 178.462 -24.1816 97.9277
0 172.202 7.72352 83.7416
0 173.151 10.3758 83.1905
26 171.51 40.425 67.8773
26 60.6541 -4.49355 27.6258
26 148.247 -18.2849 77.9891
26 209.563 -20.7483 108.563
26 193.238 2.50682 90.851
0 186.754 16.3075 82.8332
26 146.556 -33.2873 78.0496
0 180.072 -15.4949 90.186
26 191.999 0.679811 89.2245
26 193.291 3.8648 88.5978
0 183.311 15.3336 79.6941
26 231.455 52.8385 89.354
26 279.438 52.2888 112.987
0 177.496 -40.2889 93.4872
0 179.894 -40.8399 94.964
0 180.843 -38.1876 94.413
26 192.067 2.02199 86.9598
26 162.036 -62.2305 92.4167
0 185.002 -45.5428 96.0703
0 32.0382 -2.89788 0.633021
0 32.9868 -0.245561 0.0820004
26 37.4453 -0.603401 2.48305
0 191.195 -35.4846 95.3431
0 185.043 -32.3066 92.5746
26 182.567 -21.1843 85.8387
26 306.639 143.776 87.6436
0 20.7618 -8.472 -8.23324
0 21.8058 -6.94706 -6.57103
0 185.759 -40.6358 91.0928
0 188.158 -41.1868 92.5697
0 187.752 -36.4585 92.204
26 183.921 -26.6238 83.6192
26 187.275 -24.3481 84.582
26 154.583 31.2279 47.2119
26 203.151 20.7014 75.9626
0 62.2404 1.43154 6.18742
26 183.765 -25.5312 81.4479
26 184.945 -23.0765 80.7811
26 185.103 -24.1823 82.9419
26 184.844 8.40804 67.8442
0 187.329 -45.1852 86.8467
0 186.923 -40.457 86.481
0 59.7464 3.10992 2.4973
26 72.0511 9.76214 7.2012
26 101.802 1.79552 24.3068
0 189.064 3.21015 68.618
26 182.93 6.65041 63.0291
26 317.95 114.445 88.8892
0 15.7563 -18.5702 -20.6051
26 11.0059 -8.02567 -27.296
0 69.9072 8.0677 -0.999114
0 181.636 -6.1183 63.2566
26 144.254 14.9146 32.7045
0 195.903 -49.133 82.6048
0 196.689 -3.3899 64.9271
0 192.936 -0.762947 63.6356
0 169.721 -17.9456 53.0938
0 177.364 -11.0907 54.3945
0 197.948 -4.33848 62.5286
0 193.694 4.14411 58.6581
26 209.826 3.98763 67.1744
26 149.255 32.0005 22.6559
26 17.8625 -28.8118 -24.9414
26 23.9414 -18.6696 -25.7338
26 173.934 -42.7428 60.736
26 72.2885 7.52124 -10.6775
26 189.673 16.4933 47.3213
26 207.376 -72.9769 88.5991
26 175.169 -61.2595 67.1096
26 170.873 -43.4394 59.655
26 109.947 0.797569 7.66582
0 182.823 -6.15828 50.1575
0 183.772 -3.50596 49.6065
0 200.06 -1.50737 57.3658
26 161.544 22.6284 28.4487
26 157.613 40.7912 19.2998
26 338.905 66.2317 102.586
26 341.18 66.7246 101.881
26 17.7697 -24.2405 -32.7877
0 26.8483 -24.4151 -29.6441
0 176.791 -4.32647 41.1151
26 194.068 -10.2324 54.2075
26 155.27 2.73094 26.942
0 185.031 -4.45454 47.2079
26 148.798 9.93033 20.8741
26 334.608 81.0705 92.895
26 34.3409 -24.9294 -26.216
26 206.157 -55.5359 73.2859
0 109.591 -2.13452 3.25799
0 179.595 -9.60573 42.9577
0 190.585 -0.649493 45.1842
26 223.676 1.62813 60.7374
0 345.962 79.5712 93.2974
26 185.28 -34.3712 49.6211
0 116.094 4.32284 0.683247
0 154.768 19.5057 13.2613
26 208.531 6.97571 45.5573
0 352.967 80.1729 93.3016
0 356.314 82.2742 94.2275
0 150.783 11.1511 11.039
0 158.521 16.8787 14.5529
0 344.238 58.5568 93.8344
26 344.777 63.8651 93.7388
0 349.077 70.691 93.2925
0 328.79 87.9377 74.1063
26 220.178 -77.7617 80.015
26 175.544 -14.3639 32.4659
26 177.196 -11.9328 30.6871
0 146.296 8.65226 6.23764
0 152.042 10.2026 8.64039
26 194.203 32.6541 21.0114
26 330.022 63.3115 81.0874
0 347.436 76.1491 86.8381
0 336.296 82.6838 76.6894
0 219.946 27.2813 35.8111
0 344.453 56.0833 89.7736
26 345.24 64.8063 87.6409
26 347.534 85.9369 77.8887
0 352.489 85.8098 82.2355
26 343.409 112.185 66.3326
26 327.097 67.0939 71.932
0 332.161 89.8202 66.545
26 344.285 109.121 63.6929
0 194.195 -1.45926 25.0748
26 229.19 30.1365 31.2859
26 325.429 57.1255 69.7702
26 277.35 84.6028 33.6743
0 354.113 66.8967 83.6982
26 323.857 75.6803 63.3425
0 329.125 84.118 63.7716
0 333.826 84.1434 64.5121
26 185.206 -23.0167 24.6022
0 194.004 0.795488 20.6484
0 210.836 10.1747 27.4909
26 244.954 31.5648 36.1218
26 252.484 42.5963 34.7325
26 204.616 63.8422 2.23876
26 284.24 62.6171 43.5912
0 305.408 72.791 50.6508
0 344.679 80.9908 68.0211
26 322.101 87.184 55.3961
26 230.992 -36.3451 51.3587
0 194.41 -3.93277 21.0141
0 176.171 3.12758 8.64798
0 203.408 0.846209 22.1294
0 203.95 8.22679 21.2127
0 335.897 73.7383 62.8449
0 195.574 -3.75398 16.4023
0 205.209 7.27821 18.8142
26 225.163 59.0946 7.07137
0 323.809 77.6207 53.2473
26 175.191 5.30125 -1.25866
26 180.093 5.47126 0.254831
0 211.17 6.35499 17.1561
0 213.664 4.67662 20.8463
26 237.911 1.32727 35.8314
26 221.743 23.1689 18.7195
26 266.184 48.2028 28.6258
0 286.745 71.1246 32.9274
26 261.514 87.8748 13.8435
0 320.271 77.7741 47.8949
0 321.124 81.5538 45.1307
26 182.087 -31.2123 14.1355
0 201.439 -3.54982 12.531
0 209.082 3.30511 13.8317
0 211.48 2.7541 15.3086
0 207.727 5.38106 14.0171
0 210.03 5.95742 13.2807
0 212.429 5.40642 14.7576
0 208.676 8.03337 13.466
26 231.8 15.5084 21.7866
0 284.657 68.0747 29.603
0 300.85 71.2007 35.149
26 276.402 84.418 19.7447
26 327.212 82.5381 45.3515
0 204.595 0.806228 9.03042
0 205.544 3.45854 8.4794
0 207.942 2.90754 9.95628
0 208.038 1.78017 12.1695
0 212.739 1.80553 12.91
0 211.385 3.88147 13.0954
0 213.688 4.45784 12.359
26 230.515 17.0015 18.6769
26 232.119 49.953 4.99509
26 227.027 72.473 -7.62824
26 276.272 71.3553 19.6539
0 303.153 71.7771 34.4127
26 335.313 90.9816 43.6386
0 203.957 -5.44698 7.7339
0 206.355 -5.99798 9.21078
0 206.803 2.50997 6.08084
0 206.898 1.38259 8.29407
0 209.297 0.831589 9.77095
0 210.245 3.4839 9.21993
0 220.693 5.05957 12.3632
0 223.091 4.50856 13.8401
26 247.952 24.1978 19.9193
26 248.092 27.0879 17.0764
26 261.793 46.4057 16.6867
0 282.378 67.2796 21.8521
26 316.339 85.5075 30.5432
26 333.984 105.113 34.0844
0 207.209 -2.2183 6.44653
0 211.91 -2.19294 7.18706
26 245.373 24.2561 16.9308
0 271.603 55.8498 15.5648
0 272.552 58.5021 15.0138
0 236.168 71.4955 -7.50517
0 283.542 67.4584 17.2403
0 209.416 -0.514559 3.49695
26 226.374 9.96719 6.14876
26 228.579 9.3499 6.72846
26 227.773 13.4193 7.69029
0 243.131 58.861 -4.00535
0 248.972 59.2839 0.610628
0 249.921 61.9363 0.0596073
0 250.869 64.5886 -0.491414
26 240.402 88.1355 -17.8718
0 216.827 -4.64109 3.86683
26 224.929 9.68679 1.54239
26 228.304 10.1892 4.52253
26 231.53 12.4259 4.51088
26 230.152 14.6895 4.16481
0 252.534 58.9117 -2.52428
0 258.375 59.3347 2.0917
0 263.077 59.36 2.83223
0 254.527 63.089 -1.41309
0 259.324 61.987 1.54068
0 256.424 68.3936 -2.51513
0 263.62 66.7406 1.91552
26 243.863 74.9006 -11.673
26 286.212 73.9616 8.31049
0 218.086 -5.58967 1.46827
26 228.564 6.89253 0.984669
26 231.67 8.27229 3.0967
26 228.495 10.9837 2.29624
26 230.603 11.6479 1.61031
26 211.958 21.4145 -13.2869
26 211.131 23.8236 -11.1331
0 253.955 14.8724 12.2038
26 293.155 55.6531 18.3423
0 282.521 65.7147 7.09089
0 283.47 68.367 6.53987
26 231.823 9.59781 1.17979
26 233.872 10.1576 0.178585
26 232.733 12.3472 0.825961
0 264.24 59.5388 -1.77956
0 262.79 62.7421 -3.80747
26 322.28 91.7684 15.2335
26 230.747 6.97086 -2.12028
26 231.61 9.17977 -2.72409
26 209.078 -30.7427 -4.49478
26 241.851 16.362 -5.09564
26 240.29 33.0212 -13.1742
26 240.511 31.9514 -11.0604
0 252.421 46.5841 -9.72911
26 256.833 33.2741 -6.48569
26 292.222 68.9011 -1.94283
26 295.452 73.1883 -5.42627
26 265.038 -15.354 9.39983
26 222.298 -18.1462 -14.4613
26 224.219 -14.9073 -14.782
26 261.992 61.9838 -23.7347
26 263.637 62.4144 -26.4123
0 233.903 -11.628 -15.3175
26 243.407 60.235 -38.6913
26 293.555 60.6598 -9.92386
0 233.265 -17.8812 -16.614
0 231.314 -8.82223 -21.2208
26 246.305 15.9528 -22.4377
0 251.79 26.6571 -24.5045
26 267.176 -46.832 10.9413
26 240.812 -33.5901 -8.15409
26 249.131 33.434 -30.344
0 234.387 -30.9386 -17.7301
26 234.864 -24.5132 -20.1359
0 232.477 -8.64344 -25.8326
0 255.757 21.5567 -27.2737
0 249.415 26.9894 -34.4686
26 271.693 41.1845 -29.2477
26 433.296 310.05 -48.9129
26 240.31 -8.01444 -31.408
0 258.275 19.6595 -32.0708
26 271.741 40.3316 -32.2966
26 233.825 -48.0956 -18.9048
26 270.003 -54.8396 -0.829612
0 242.514 -43.3943 -18.8421
0 234.817 -35.8856 -25.8517
0 276.216 43.5811 -35.5489
0 243.773 -44.3429 -21.2407
0 246.171 -44.8939 -19.7638
0 235.67 -32.106 -28.6159
26 446.206 282.143 -41.427
0 240.235 -44.1894 -26.593
0 240.33 -45.3168 -24.3798
0 238.379 -36.2578 -28.9866
0 239.232 -32.4782 -31.7508
26 308.445 72.7039 -38.0493
0 245.288 -34.5288 -31.1956
26 257.556 -20.7748 -29.2099
0 289.587 38.5313 -36.8371
26 359.044 188.212 -60.3835
0 290.846 37.5827 -39.2356
0 248.809 -48.1372 -30.8349
0 292.105 36.6342 -41.6342
0 287.851 45.1168 -45.5047
0 295.046 43.4637 -41.074
0 295.995 46.1161 -41.625
26 240.479 -67.4966 -30.0863
26 293.045 23.9958 -37.9141
26 280.832 57.7141 -60.2335
26 240.983 -45.311 -43.7064
26 288.664 2.25795 -37.6623
26 272.565 34.2138 -56.8967
26 243.919 -66.7526 -35.3753
26 221.198 -45.0487 -56.0987
26 297.322 37.4951 -46.9335
0 293.931 42.8474 -53.4367
26 326.909 25.8748 -33.7382
0 296.234 43.4238 -54.173
26 254.212 -43.1776 -46.1977
26 318.454 31.2599 -41.7821
0 297.493 42.4752 -56.5716
26 322.171 66.2724 -55.635
26 332.883 64.8695 -48.6249
0 306.423 89.2175 -70.3696
26 235.565 -13.6024 -70.3444
0 304.754 53.8396 -64.1238
26 311.187 85.7403 -74.9874
26 309.427 83.6033 -73.3611
26 327.622 81.8288 -65.776
26 331.471 20.4559 -40.3619
26 285.231 51.2116 -76.7085
26 305.062 142.832 -102.472
26 453.485 197.878 -45.5473
0 473.952 233.554 -51.5379
26 476.327 244.273 -55.4879
26 479.256 242.874 -49.8271
0 317.367 43.8828 -60.4345
0 320.619 47.1115 -61.7219
0 475.712 226.75 -51.3575
0 479.059 228.851 -50.4317
0 481.458 228.3 -48.9548
26 489.442 234.148 -44.5239
0 306.132 51.5449 -72.7964
0 296.985 62.2568 -81.8339
0 307.432 63.8325 -78.6906
0 308.381 66.4848 -79.2416
0 309.33 69.1371 -79.7926
0 309.425 68.0098 -77.5794
0 310.374 70.6621 -78.1304
26 308.785 130.48 -103.322
26 330.434 142.933 -96.1057
0 476.565 230.53 -54.1218
0 472.717 234.284 -57.6266
0 309.79 50.0453 -73.7181
26 307.05 57.6679 -79.0695
0 309.64 65.5362 -81.6402
26 335.185 73.3369 -71.5197
26 317.462 87.7083 -84.8731
26 316.629 91.2097 -87.3881
26 270.176 110.43 -119.268
26 319.971 120.371 -98.8377
26 303.977 135.922 -111.484
26 456.307 192.495 -52.0914
26 472.639 215.227 -56.1215
26 473.682 216.667 -54.5079
26 481.57 217.354 -48.8778
26 484.149 217.347 -49.207
26 315.295 43.6883 -72.6032
0 314.246 66.689 -83.1129
26 335.603 67.6544 -71.508
0 336.28 70.2379 -72.9509
0 334.83 73.4412 -74.9788
26 335.525 71.2321 -72.5117
26 333.761 74.5274 -75.1565
26 337.751 75.1758 -75.0263
26 317.018 87.0517 -88.8683
26 321.232 146.178 -110.85
0 465.653 206.991 -59.1267
0 329.002 45.4185 -70.3902
0 331.4 44.8675 -68.9134
0 301.168 54.6829 -88.6639
0 327.092 67.7136 -78.4927
26 335.765 69.3055 -73.6473
26 337.656 70.4077 -73.1084
26 322.948 118.697 -101.536
26 323.039 117.595 -99.4288
26 339.021 167.7 -110.789
0 462.169 192.781 -58.7702
0 464.066 198.085 -59.8722
26 302.211 8.35362 -74.1171
26 359.229 21.5518 -47.615
26 365.378 32.5805 -50.6135
26 336.401 69.8197 -77.5541
26 319.463 165.163 -127.204
26 459.231 182.872 -59.0565
0 465.325 197.137 -62.2708
26 329.945 91.7471 -92.3303
26 322.826 121.048 -108.673
26 324.21 162.121 -125.124
26 321.628 164.403 -127.665
26 417.431 201.211 -91.6556
0 466.68 195.061 -62.4561
0 323.782 37.7938 -78.7013
0 323.578 67.6483 -92.3323
26 325.09 120.926 -109.905
26 348.615 127.463 -101.005
26 342.226 131.724 -107.081
26 324.436 161.572 -128.181
0 480.379 199.865 -60.6002
0 320.366 132.637 -121.437
26 370.291 129.018 -93.7987
26 456.647 199.692 -76.3965
0 473.494 197.917 -66.8784
0 475.892 197.366 -65.4015
26 467.771 208.699 -76.9316
0 327.248 38.5489 -84.0494
0 326.923 124.73 -118.303
0 318.182 130.714 -126.974
0 327.777 128.51 -121.067
0 483.303 193.24 -65.0316
0 473.303 200.172 -71.3048
26 498.273 195.292 -59.0059
0 479.901 205.502 -71.6663
26 315.258 77.5407 -110.021
26 310.06 92.6928 -118.032
26 336 111.464 -114.323
0 328.182 123.782 -120.701
0 330.581 123.231 -119.224
0 329.036 127.562 -123.465
26 462.033 177.196 -74.1241
26 344.627 34.9078 -82.9695
26 371.345 45.3084 -69.4416
0 330.051 88.2505 -109.103
0 322.15 125.614 -129.744
0 316.446 137.3 -135.642
26 453.942 159.006 -72.772
26 457.167 161.057 -73.7757
0 470.576 190.869 -75.9258
0 475.278 190.894 -75.1852
0 474.872 195.623 -75.5509
26 489.566 198.747 -71.8797
26 488.728 201.251 -69.4731
0 351.568 29.2192 -79.6154
26 347.534 52.0685 -88.142
0 331.31 87.3019 -111.502
0 338.953 94.1568 -110.201
0 325.903 122.987 -128.452
0 328.206 123.563 -129.188
0 328.302 122.436 -126.975
0 326.852 125.639 -129.003
0 329.25 125.088 -127.526
0 331.554 125.664 -128.263
0 330.104 128.868 -130.291
0 332.502 128.317 -128.814
26 454.216 158.521 -76.9491
26 456.059 158.343 -74.0452
26 439.998 201.917 -101.491
26 443.84 206.638 -102.191
26 489.255 194.743 -72.8711
0 341.431 24.0426 -84.6062
0 346.133 24.068 -83.8657
0 335.184 28.348 -89.5879
0 349.575 25.0419 -80.7266
26 322.144 33.3283 -98.4655
0 354.724 33.5752 -83.116
0 352.367 47.3625 -88.0885
0 351.202 102.164 -110.373
0 324.668 123.716 -134.541
0 327.067 123.165 -133.064
0 329.561 121.487 -129.374
0 330.509 124.139 -129.925
0 322.813 131.648 -136.934
0 352.636 30.5254 -86.4404
26 346.984 79.3486 -107.957
0 349.114 99.1146 -113.697
0 324.573 124.844 -136.754
0 326.876 125.42 -137.49
0 331.267 129.046 -134.902
26 372.537 123.331 -110.893
26 357.343 153.804 -131.753
26 355.889 168.367 -139.209
26 476.685 185.468 -83.4568
0 347.797 18.3912 -85.8985
26 370.266 37.7811 -84.2386
0 350.373 98.166 -116.096
0 342.174 111.53 -125.684
0 323.338 125.574 -142.843
26 376.582 145.549 -122.903
26 419.205 213.527 -126.375
0 354.301 24.8485 -88.4733
0 321.196 136.887 -151.876
0 384.344 168.304 -131.155
26 405.998 189.932 -127.611
0 422.612 188.215 -118.942
0 468.28 176.619 -88.6683
0 419.712 194.622 -122.998
0 420.661 197.274 -123.549
0 441.34 202.899 -113.202
26 352.942 -3.4144 -81.4452
0 351.264 19.1463 -91.2467
26 394.671 99.1032 -102.632
0 325.951 122.549 -145.427
0 324.406 126.88 -149.668
0 387.5 172.66 -134.655
0 389.898 172.109 -133.178
0 388.544 174.185 -132.993
0 396.688 175.185 -129.113
0 399.94 178.413 -130.401
26 481.237 159.517 -81.0738
26 431.178 177.689 -114.543
0 395.686 186.896 -134.271
0 419.17 187.241 -122.081
0 429.115 194.673 -121.517
0 427.26 202.604 -123.911
0 446.448 198.196 -112.096
26 383.268 -15.524 -65.6655
0 352.427 19.3251 -95.8585
0 357.32 17.0957 -90.6915
26 368.771 146.512 -134.931
26 447.103 133.184 -91.3179
0 420.537 157.566 -113.062
26 407.144 173.878 -128.452
0 391.7 178.541 -136.494
26 431.406 174.481 -113.139
26 476.849 189.866 -96.2123
26 376.16 20.9245 -84.7887
26 339.537 128.547 -148.527
26 433.387 143.381 -106.813
0 388.718 158.476 -133.558
0 386.671 168.662 -140.378
0 393.866 167.009 -135.948
26 426.789 162.555 -116.189
26 424.809 163.122 -117.419
26 407.513 169.557 -130.644
26 425.857 164.588 -115.642
0 408.8 171.083 -128.003
26 411.452 172.124 -129.588
26 405.049 174.893 -134.226
26 434.359 175.758 -116.514
26 467.389 206.979 -112.288
26 346.446 14.2413 -104.796
26 333.356 119.374 -151.505
26 338.668 122.212 -151.236
26 339.868 123.876 -149.665
0 395.179 151.697 -132.637
0 447.947 139.575 -100.146
0 395.125 166.06 -138.346
26 421.632 163.496 -122.67
0 399.421 170.814 -137.971
26 420.552 166.965 -124.937
26 420.316 165.307 -123.456
26 423.846 164.155 -123.503
26 423.108 165.053 -120.963
26 425.217 165.551 -121.89
26 425.859 162.369 -120.072
26 426.883 163.583 -118.377
26 428.879 163.878 -119.96
26 408.807 170.675 -132.332
26 425.04 166.972 -123.926
26 430.073 165.964 -119.094
26 407.23 174.181 -134.58
0 408.514 174.466 -134.643
0 411.008 172.787 -130.953
26 409.721 175.889 -131.97
26 435.388 172.665 -119.041
0 464.127 170.3 -103.804
0 326.692 114.001 -155.396
26 335.885 116.273 -154.225
26 338.116 115.523 -152.541
26 334.512 118.343 -154.029
26 334.674 117.32 -151.701
26 333.342 120.469 -153.714
0 458.8 136.422 -96.6369
0 450.602 149.786 -106.225
26 421.636 161.117 -126.798
26 424.9 163.375 -125.992
0 404.123 170.839 -137.231
0 461.688 157.615 -101.786
26 409.334 173.382 -135.187
26 389.111 183.301 -151.767
26 391.076 183.13 -148.916
26 364.154 10.2752 -97.246
26 334.043 112.21 -155.384
26 334.059 111.178 -153.206
26 332.644 114.27 -155.131
26 334.953 113.809 -153.716
26 339.505 113.503 -152.785
26 428.711 101.202 -101.187
26 398.604 115.302 -122.412
0 389.106 140.292 -138.184
0 388.7 145.021 -138.55
0 391.099 144.47 -137.073
0 387.155 149.351 -142.791
0 397.793 148.672 -135.221
0 401.045 151.901 -136.509
0 463.502 136.447 -95.8964
0 398.145 158.307 -140.564
0 459.599 154.565 -105.11
0 462.851 157.794 -106.397
26 389.006 184.391 -153.938
0 335.457 107.799 -155.211
26 405.889 98.639 -115.413
26 338.348 129.21 -163.103
26 341.105 128.743 -160.546
0 396.653 148.275 -139.097
0 399.052 147.724 -137.62
0 456.969 144.135 -107.518
0 457.917 146.787 -108.069
26 488.729 153.89 -95.5855
26 368.304 128.819 -150.669
26 399.901 121.953 -133.067
0 389.768 146.327 -145.375
0 401.761 143.572 -137.99
26 472.21 128.117 -94.8915
0 457.78 134.678 -106.786
0 458.729 137.331 -107.337
0 455.829 143.737 -111.393
0 459.272 144.711 -108.254
0 461.575 145.288 -108.99
0 461.67 144.16 -106.777
0 460.22 147.363 -108.805
0 462.619 146.812 -107.328
0 453.878 152.796 -116
0 463.472 150.592 -110.092
0 463.567 149.465 -107.879
0 464.42 153.244 -110.643
0 370.51 96.6626 -140.994
0 370.957 105.171 -144.124
26 396.689 121.257 -134.249
26 372.78 136.726 -156.342
0 455.191 137.484 -112.69
0 456.139 140.136 -113.241
0 458.132 144.314 -112.13
0 460.531 143.763 -110.653
0 462.929 143.212 -109.176
0 459.081 146.966 -112.681
0 461.479 146.415 -111.204
0 463.878 145.864 -109.727
0 457.535 151.297 -116.922
0 465.775 151.169 -110.829
26 495.408 145.28 -95.5496
0 462.374 163.431 -117.464
26 471.93 171.694 -117.446
26 361.326 42.7856 -127.89
26 322.351 99.4857 -169.132
0 400.932 139.573 -143.713
0 457.398 139.188 -115.639
0 459.296 144.492 -116.741
26 376.478 80.572 -137.413
0 376.822 105.375 -147.995
0 381.715 103.145 -142.828
0 376.321 111.23 -150.574
0 385.509 113.755 -145.032
0 381.159 123.364 -151.116
26 472.747 121.494 -102.915
26 446.694 212.029 -153.438
0 371.984 93.2405 -147.453
0 366.631 114.562 -158.695
26 386.825 122.137 -151.04
26 461.163 105.475 -107.794
26 459.708 107.404 -108.053
26 466.152 112.35 -106.341
26 463.465 124.114 -113.131
26 476.001 121.541 -104.955
0 373.243 92.2919 -149.852
0 375.993 101.376 -153.718
26 360.334 120.263 -168.488
0 380.33 119.366 -156.839
26 464.731 124.987 -114.778
26 531.332 192.716 -108.255
0 379.203 91.3687 -151.51
0 380.152 94.021 -152.061
0 372.049 106.258 -159.436
0 379.149 105.732 -157.219
0 381.548 105.181 -155.742
0 379.597 114.24 -160.349
0 374.758 102.106 -159.807
0 373.213 106.437 -164.048
0 382.807 104.233 -158.141
0 374.472 105.488 -166.447
26 451.148 130.295 -135.159
26 449.538 133.584 -136.909
0 375.826 103.412 -166.632
26 391.495 200.739 -197.62
26 371.878 106.387 -174.005
26 480.759 96.8206 -115.014
26 467.187 118.809 -129.177
26 471.254 105.252 -124.185
26 369.656 101.711 -182.158
26 387.283 142.406 -187.133
26 373.711 99.4472 -182.835
26 366.872 105.149 -187.848
26 369.6 102.839 -186.117
26 370.704 101.675 -184.209
26 373.194 101.774 -183.67
26 369.002 104.744 -184.98
26 467.037 201.141 -171.032
26 368.169 102.237 -190.168
26 372.549 101.507 -187.47
26 374.358 102.226 -185.848
26 369.221 105.493 -187.373
26 371.215 104.956 -186.028
26 426.251 115.524 -167.316
26 340.949 61.2365 -227.507
