ITEM: TIME
40.0
ITEM: TIMESTEP
0
ITEM: NUMBER OF ATOMS
712
ITEM: BOX BOUNDS pp pp pp
-342.636 342.636
-342.636 342.636
-342.636 342.636
ITEM: ATOMS type x y z
26 247.995 -166.425 -171.686
26 373.225 7.38432 -183.964
26 251.162 -173.29 -167.544
26 396.637 -33.3672 -179.156
26 226.468 -132.917 -151.736
26 393.235 -15.4537 -174.6
0 234.313 -151.564 -150.698
26 267.014 -115.989 -154.785
0 391.005 -11.2894 -168.66
0 237.244 -157.637 -148.707
26 282.649 -144.379 -156.475
0 388.294 -17.039 -165.655
26 374.875 -17.0041 -163.39
0 392.374 -15.7553 -167.745
0 246.973 -146.878 -146.762
0 248.047 -138.493 -143.456
0 252.217 -118.64 -142.832
0 249.397 -118.479 -142.325
0 387.339 -21.5362 -161.413
0 387.532 -18.677 -161.252
26 207.443 -3.34189 -127.898
26 342.768 -18.4198 -151.108
26 254.366 -176.495 -140.503
0 247.092 -142.99 -139.215
26 222.531 -76.3154 -130.356
26 323.495 -57.0678 -144.454
26 254.681 -174.987 -138.908
0 260.817 -139.718 -137.023
0 248.745 -126.028 -135.425
0 245.924 -125.867 -134.918
0 246.31 -120.148 -134.594
26 356.774 -28.1855 -147.045
0 252.273 -148.003 -133.166
0 371.629 -32.7747 -147.736
0 369.001 -29.754 -147.067
26 354.377 -28.619 -143.668
26 383.86 -21.3799 -148.406
0 253.347 -139.619 -129.861
0 249.736 -126.414 -129.784
0 247.109 -123.393 -129.115
26 216.371 -62.2344 -119.549
0 247.605 -123.586 -126.295
26 347.609 -54.7272 -139.949
0 369.414 -38.7171 -141.911
26 330.184 -53.9109 -132.4
26 326.483 -54.4823 -131.835
0 359.612 -48.448 -136.471
0 364.462 -35.7277 -137.915
0 370.296 -33.1917 -138.767
26 252.328 -122.805 -120.52
26 348.681 -68.7445 -133.705
26 370.743 -14.0099 -133.896
26 246.37 -157.857 -118.241
26 250.402 -132.278 -116.275
26 248.726 -133.416 -117.568
0 249.671 -115.587 -117.348
26 303.571 -61.3394 -122.278
26 266.295 -41.2226 -114.416
26 237.496 -124.408 -112.897
26 257.445 -105.456 -113.64
26 258.647 -104.052 -115.203
26 256.884 -68.86 -111.829
0 331.738 -64.5657 -123.909
0 245.268 -45.2612 -107.385
0 323.965 -61.4147 -119.406
26 408.037 -5.14491 -132.59
0 329.909 -64.7898 -117.761
26 380.521 -56.2381 -126.877
0 356.065 -54.8073 -121.678
26 330.315 -50.4458 -116.023
0 238.864 -46.5761 -101.967
26 255.406 -89.8465 -104.854
26 257.226 -64.2545 -103.496
26 364.716 -60.5472 -119.986
26 244.535 -130.018 -100.526
26 321.386 -95.4111 -114.778
0 330.13 -76.6121 -112.767
0 340.429 -67.0741 -115.386
0 358.123 -56.6069 -117.782
0 355.302 -56.4454 -117.275
26 290.287 -53.4423 -106.385
26 366.023 -53.3669 -119.004
0 355.495 -53.5862 -117.113
0 258.919 -40.9605 -97.8076
26 246.182 -39.4626 -96.178
26 265.792 -116.923 -100.443
26 263.978 -118.055 -101.724
26 363.194 -85.8103 -117.036
0 254.454 -47.9624 -96.0408
26 401.209 -11.2391 -120.112
26 234.041 -138.88 -95.0094
0 262.183 -108.844 -98.6413
0 348.43 -72.2489 -109.845
0 337.149 -71.6026 -107.817
26 253.738 -113.544 -95.2415
0 262.679 -109.037 -95.8209
26 354.46 -83.4151 -108.788
26 352.999 -81.7681 -109.867
0 327.428 -72.5631 -104.713
0 354.76 -69.9057 -107.877
0 351.94 -69.7441 -107.37
26 260.666 -62.9286 -93.0882
0 332.114 -77.3835 -101.485
0 350.295 -76.9077 -106.11
26 370.478 -70.1523 -109.938
0 351.775 -87.2848 -102.698
0 352.353 -78.7073 -102.213
26 375.065 -90.0521 -106.253
0 344.002 -84.1337 -98.195
0 257.633 -80.539 -84.2227
0 249.751 -71.4768 -82.217
26 231.158 -26.0655 -73.6925
26 265.012 -26.4191 -80.9911
26 322.538 -83.1266 -92.1653
0 258.515 -75.0135 -81.0791
0 294.327 -97.3209 -85.9805
0 290.827 -90.027 -83.4059
0 285.378 -86.8447 -82.2303
0 249.778 -86.1582 -77.3839
26 279.221 -80.9158 -81.4711
0 259.011 -75.2063 -78.2586
0 252.497 -70.61 -75.3385
26 363.956 -66.2041 -94.645
26 364.923 -59.1309 -94.9467
26 255.671 -42.658 -74.5884
26 0.848288 -25.4423 -28.7811
26 18.4564 59.8448 -25.1706
26 172.442 78.3945 -52.6999
0 257.265 -66.6601 -74.4464
0 244.165 -100.517 -71.5368
0 252.332 -88.1507 -70.667
0 262.823 -75.7535 -73.1247
26 374.66 -67.8527 -91.5381
26 287.506 -55.6917 -75.471
26 95.5602 57.1782 -33.8943
26 45.5289 71.2908 -24.05
0 246.223 -102.316 -67.6404
26 321.25 -69.1934 -79.3252
26 278.754 -58.9324 -71.1497
26 49.057 18.8018 -25.3598
26 81.068 41.2482 -28.8162
26 32.2833 44.0588 -20.7425
26 31.1171 47.2043 -20.311
26 268.895 -114.564 -71.0178
0 291.056 -92.0507 -73.3615
26 24.7194 3.59347 -20.8437
26 81.4846 44.1958 -27.2148
26 107.153 47.6686 -32.1742
26 91.8452 63.8078 -28.4922
26 90.9517 78.0533 -26.613
26 241.907 -114.64 -62.6807
0 235.547 -107.774 -60.2946
0 251.487 -98.559 -63.9278
0 240.783 -89.3353 -61.4151
0 39.8016 12.5075 -17.6514
26 26.7479 20.4456 -15.4925
0 33.4614 44.443 -14.3531
26 84.1023 69.6236 -23.7783
0 242.263 -99.7124 -58.0034
0 233.801 -99.2277 -56.4824
0 228.353 -96.0454 -55.3069
0 245.469 -94.1556 -58.1873
0 242.648 -93.9941 -57.6803
26 351.698 -85.9414 -75.5396
0 268.206 -68.109 -61.865
26 253.312 -50.8335 -56.6617
26 73.6976 35.5206 -19.1579
0 103.486 50.3951 -24.7987
26 304.645 -97.9925 -65.0504
26 303.195 -96.2482 -66.1706
0 272.891 -72.9293 -58.6371
26 290.245 -67.4319 -60.5388
26 26.4985 -0.704533 -10.5028
0 34.9597 9.58578 -11.158
0 37.2737 43.8957 -9.21916
0 35.5191 42.6433 -10.4567
26 43.9134 47.1526 -10.1774
0 101.161 50.3638 -21.4712
0 98.3406 50.5254 -20.9642
0 101.354 53.223 -21.3097
0 98.5334 53.3846 -20.8027
0 50.6767 74.7002 -9.46984
0 217.677 -101.503 -47.9611
26 306.166 -100.102 -63.9781
26 354.112 -101.376 -73.3235
26 308.416 -97.1935 -64.3633
26 233.009 -91.8741 -50.2587
0 312.295 -83.9616 -63.3993
26 289.131 -68.8327 -59.0324
26 95.5101 -12.0208 -20.3754
0 23.0168 -7.11574 -7.279
0 37.8905 3.51305 -9.16767
0 46.7375 8.74665 -10.3655
0 40.8846 30.6907 -9.29648
0 40.2045 37.823 -7.22882
0 99.0294 53.1917 -17.9822
0 96.2089 53.3533 -17.4752
26 97.8807 70.2107 -17.3261
0 308.043 -112.585 -61.6875
26 227.301 -105.811 -47.2186
26 234.972 -88.9103 -48.6734
26 234.41 -82.5665 -45.9304
0 274.076 -70.4558 -52.8346
0 281.361 -63.6154 -55.1084
0 281.554 -60.7563 -54.9468
26 252.471 -29.5445 -48.4963
26 228.235 -13.923 -41.5218
0 1.33476 -0.297673 -0.079428
0 38.3864 3.32021 -6.34719
26 73.2245 4.12444 -11.6766
26 77.278 21.117 -11.1671
0 97.881 45.8354 -13.9019
26 60.0426 65.3347 -6.74587
26 94.4887 70.8559 -12.3521
26 226.877 -106.022 -45.0351
26 224.574 -105.89 -44.5126
0 315.722 -90.2272 -58.5885
26 14.5491 -11.9582 -0.263007
0 26.6364 -10.5221 -2.3066
0 133.693 23.528 -18.8033
0 47.3246 27.1227 -4.83108
26 60.4767 63.0491 -3.28235
26 51.8013 64.2546 -3.87401
26 234.965 -111.659 -42.1389
0 305.038 -105.484 -56.2924
0 301.152 -103.908 -54.0409
0 305.231 -102.624 -56.1308
26 258.138 -97.9007 -46.2768
26 287.584 -80.7608 -51.5297
0 312.607 -77.215 -55.6907
0 291.008 -61.6267 -50.8269
26 16.2064 -10.7125 0.953783
0 24.8904 -1.97592 1.50559
0 36.5579 3.09612 -0.199242
0 130.983 17.7784 -15.799
0 47.1404 34.0622 0.0570665
0 48.3991 35.5074 -1.52588
26 143 40.6646 -16.2812
0 304.661 -101.403 -51.5658
0 304.854 -98.5441 -51.4042
26 261.564 -96.6742 -45.1106
0 310.687 -96.0081 -52.2567
0 306.305 -94.2397 -52.8256
0 303.485 -94.0781 -52.3186
26 88.7448 -13.5941 -8.88348
0 26.645 -0.723542 2.74312
0 23.8245 -0.56197 3.25011
26 53.0653 17.1149 0.637054
0 70.2001 32.5768 -1.1784
26 141.752 39.3196 -14.6794
26 139.77 39.4332 -13.5574
0 99.5617 48.116 -5.2789
0 77.1908 52.2678 -1.06138
26 65.2024 52.2901 1.09985
0 93.516 67.2009 -4.37144
26 214.88 -108.721 -33.2334
0 294.261 -95.2315 -46.3942
0 306.801 -94.4325 -50.0051
0 303.981 -94.271 -49.4981
26 137.288 -39.5949 -15.0566
0 92.6092 -20.5351 -5.82915
0 98.4429 -17.9991 -6.68156
26 168.652 -16.3409 -18.0911
0 90.3672 -11.7961 -4.83744
26 18.6669 4.48378 9.20087
0 52.9107 3.3478 1.3238
26 32.0354 15.1925 7.34716
26 58.5608 13.7452 1.04052
26 52.8364 16.7906 3.00471
26 50.4085 17.165 3.39144
0 43.1716 26.8674 4.64435
0 131.184 30.4361 -10.5877
0 128.75 36.316 -9.75759
0 94.2239 45.3872 -1.60601
0 94.4167 48.2463 -1.44443
0 95.8682 52.5507 -2.86581
26 141.059 52.1438 -10.1435
0 83.9062 60.3293 1.22983
26 99.6163 75.2764 -1.20422
0 303.705 -105.9 -47.324
0 306.911 -100.344 -47.5078
0 303.025 -98.7682 -45.2563
0 294.564 -98.2835 -43.7353
0 298.643 -96.9998 -45.8253
0 259.248 -76.1689 -36.0134
26 148.555 -49.928 -14.0146
26 195.289 -32.821 -24.1363
26 112.17 -8.19147 -6.33305
0 64.4957 -0.350487 1.95474
0 56.704 27.2806 6.67438
0 63.6036 28.4027 4.07745
26 152.998 39.0609 -10.1141
0 92.9652 43.942 -0.0230544
0 96.3642 52.3579 -0.0453326
26 277.687 -105.394 -37.5421
0 297.494 -104.356 -41.745
0 254.397 -88.8892 -34.5697
26 315.798 -86.1694 -43.1526
26 313.976 -87.4886 -44.2648
0 263.244 -83.6556 -35.7676
0 254.295 -73.1794 -32.0174
0 89.6045 -13.4341 -0.434007
26 46.5139 18.4292 10.1026
26 45.0732 20.1488 10.5103
26 118.966 34.3078 -2.34154
0 70.3189 36.4642 6.36866
0 78.9732 38.8387 5.00925
0 99.1021 43.426 1.78344
0 89.7677 48.1838 5.21051
0 76.924 50.4369 6.16253
26 225.899 -125.559 -26.8951
26 276.287 -81.0394 -32.7783
26 248.119 -76.1503 -28.8837
26 323.723 -73.5628 -43.4512
26 327.939 -69.3816 -40.9327
26 227.958 -41.0349 -22.2865
26 232.679 -34.0639 -22.6369
26 119.318 30.5726 0.874841
26 117.498 35.6316 3.0855
0 98.9178 50.3654 6.67158
0 94.5356 52.1338 6.10262
0 80.6261 55.8008 8.79916
0 301.692 -99.1851 -36.2879
0 293.231 -98.7004 -34.7669
26 279.497 -84.241 -30.6398
26 277.859 -82.6982 -31.7352
26 277.015 -81.0993 -30.0602
26 253.462 -75.6307 -26.637
26 326.152 -72.768 -40.4209
26 329.84 -70.0188 -39.2023
0 234.459 -46.54 -20.8663
26 119.631 -14.0555 0.846325
26 360.292 -111.508 -43.8408
0 289.345 -97.1249 -32.5154
26 280.024 -87.2723 -27.9388
26 279.469 -81.5135 -30.2561
0 317.641 -80.1717 -34.8713
26 250.661 -74.1094 -24.0929
26 157.062 -67.3577 -6.48547
26 155.279 -68.5728 -7.65462
0 233.586 -42.2669 -18.9602
0 168.035 -31.4185 -5.23171
0 242.626 -34.1742 -19.9965
26 174.855 -25.3405 -6.03811
26 120.386 -12.8689 3.64299
26 60.2725 60.2734 19.8255
26 254.4 -104.644 -21.7209
26 255.602 -103.249 -23.2294
0 230.297 -56.594 -16.4406
0 233.016 -41.0458 -14.3952
0 158.315 -32.379 -2.12778
26 107.033 -11.0533 10.5239
0 109.638 60.7388 14.2583
0 108.269 65.2048 13.3439
0 259.89 -87.1558 -20.8128
0 162.615 -42.9177 0.77695
0 161.439 -35.5926 0.0241356
0 161.824 -29.8742 0.347279
0 129.926 -23.8238 7.8303
26 149.629 -22.8654 3.75491
0 135.76 -21.2878 6.97788
26 66.3869 -2.25744 21.2525
26 63.0835 27.3813 20.8834
26 35.8123 48.2128 30.0306
26 123.662 67.1246 12.9572
0 325.064 -93.9239 -29.8147
0 325.45 -88.2056 -29.4916
0 168.366 -49.152 2.2603
0 174.971 -35.1793 2.05417
0 240.227 -33.1771 -9.28353
26 148.765 -22.764 6.6774
0 134.501 -22.733 8.56083
26 93.4897 6.11912 19.2234
26 62.3148 28.8707 25.4928
0 339.175 -84.9332 -27.2999
26 176.676 -49.86 4.43342
0 164.48 -47.5765 4.51182
26 178.106 -24.6346 3.67919
0 133.932 -21.5119 13.1258
0 134.124 -18.6528 13.2874
26 113.278 -18.7732 14.6845
26 244.989 -22.8946 -5.84531
26 308.544 -104.06 -20.9439
0 262.168 -100.778 -11.9217
0 336.85 -84.9644 -23.9725
26 176.939 -71.3756 4.30435
26 325.311 -74.9462 -22.7085
26 160.807 -61.3582 8.59642
26 311.691 -67.2274 -18.349
26 321.396 -50.4387 -18.9209
26 1.8198 88.537 46.1175
0 263.537 -105.244 -11.0073
26 340.664 -91.1829 -21.4293
26 162.453 -60.0874 9.8086
26 413.852 -67.8235 -35.5768
0 165.086 -53.6804 9.82963
0 223.443 -52.8004 1.08887
0 164.213 -49.4073 11.7357
0 219.253 -48.1728 0.681478
0 200.667 -29.8869 5.19986
0 254.506 -103.538 -4.92128
26 279.823 -64.0889 -5.9247
0 170.543 -47.0642 13.7038
26 197.595 -21.9921 9.92631
26 269.606 -18.8038 -4.10444
26 121.373 58.5271 28.1136
0 163.065 -56.7637 15.816
0 162.384 -49.6314 17.8837
0 198.453 -35.8293 11.0247
26 103.583 79.4607 35.5774
26 18.4447 118.6 53.0536
0 165.315 -55.7042 19.874
26 152.404 -44.8981 22.1741
0 204.397 -39.2044 12.6696
0 201.576 -39.0428 13.1766
26 247.136 -28.0562 7.39401
26 193.007 -27.2604 14.7898
26 266.01 -20.547 4.44925
0 350.226 -92.2932 -12.2212
26 326.66 -72.1565 -7.37308
0 169.505 -60.3317 20.2814
26 253.735 -55.9288 8.10265
0 205.086 -36.5381 15.6516
0 201.199 -34.9626 17.9032
0 247.778 -33.2433 8.36989
0 256.432 -30.8689 7.01048
26 370.393 -166.742 -18.6369
26 245.225 -101.502 7.81884
26 355.034 -99.0751 -12.0279
26 180.585 -54.7564 23.7494
26 255.513 -54.7019 9.30682
0 161.245 -47.1892 27.0137
26 200.405 -40.0472 19.127
0 194.493 -33.2255 20.6617
26 240.539 -16.532 15.169
26 238.989 -15.0128 14.1435
26 279.5 -52.6591 8.021
0 248.577 -36.4882 13.8493
26 228.949 -36.2155 18.1347
0 253.07 -44.1677 16.9156
26 188.582 -38.997 26.422
0 249.073 -36.681 16.6698
0 249.266 -33.8219 16.8313
26 328.372 -139.722 -1.36942
0 372.339 -88.4772 -4.16507
26 385.799 -112.976 -6.66152
26 335.548 -108.588 3.87569
26 88.8543 106.285 62.7581
26 356.637 -101.567 2.95223
0 388.306 -93.9439 -2.96517
0 394.14 -91.4079 -3.81759
0 370.51 -88.7013 1.98288
0 362.435 -82.4983 3.827
26 168.773 -54.8894 39.004
26 204.65 -48.3183 33.1858
0 372.265 -87.449 3.22041
26 362.481 -72.5523 5.23596
26 413.391 -131.726 -1.89885
26 421.193 -118.491 -3.13952
0 378.016 -93.6833 4.70376
26 406.259 -88.2195 2.24854
26 176.513 -70.1052 43.1356
26 203.454 -39.9613 39.7622
0 370.244 -90.5322 9.20679
26 420.273 -87.0717 2.87698
26 365.35 -70.1803 12.2559
0 273.161 -43.435 30.9581
0 270.341 -43.2734 31.4651
26 384.346 -91.5596 10.2894
26 280.93 -38.9444 32.1203
26 283.832 -20.5943 34.2624
26 299.97 0.0156147 32.0203
0 396.435 -85.4326 15.173
0 289.716 -30.5255 37.6924
0 410.262 -97.8699 14.8122
0 404.814 -94.6876 15.9877
0 401.994 -94.5261 16.4947
0 405.2 -88.9693 16.3109
26 381.535 -71.7292 20.8743
26 286.313 -44.1233 39.591
26 326.295 -25.4275 32.2854
0 297.497 -23.878 38.2391
0 411.631 -102.336 15.7266
0 404.134 -87.5554 18.0554
26 423.37 -105.216 15.5809
0 405.613 -97.9325 21.4671
0 407.065 -93.6281 20.0458
0 404.244 -93.4665 20.5527
0 406.192 -89.355 21.9518
26 413.044 -81.0536 20.5757
0 295.475 -26.9612 44.2255
0 292.655 -26.7997 44.7325
26 383.248 -119.024 26.1392
0 407.368 -96.6801 22.7047
26 341.109 -45.6595 40.0741
26 299.383 -42.4317 46.1234
0 318.158 -24.3664 47.7166
26 409.406 -118.042 28.1808
26 384.471 -96.4098 33.2175
26 389.437 -72.2568 33.3582
26 368.812 -66.8276 38.7836
0 318.654 -24.5592 50.5371
0 319.913 -23.114 48.9541
26 311.393 -21.7743 49.7536
26 383.406 -95.1256 35.004
26 317.663 -43.9415 51.5908
0 315.751 -33.1679 53.3798
0 317.202 -28.8636 51.9584
26 433.02 -63.7547 32.8437
26 279.538 -41.9767 62.0706
0 316.825 -24.7833 56.685
0 323.642 -32.4315 56.4238
26 318.081 -17.1855 60.665
26 282.701 -52.6335 66.562
26 327.45 -43.6513 60.8755
26 382.579 -24.7208 64.8399
26 374.564 -9.44079 68.8432
0 340.536 -27.457 75.6999
26 353.525 -37.6446 74.1318
0 342.484 -23.3454 77.099
0 371.377 -22.2948 75.0111
0 370.311 -20.8809 76.7556
0 371.57 -19.4357 75.1727
0 370.504 -18.0217 76.9172
26 328.273 -14.7422 85.2312
26 335.615 -14.4585 81.143
26 324.849 -12.5278 86.0098
26 336.025 -40.507 83.6847
0 342.511 -38.0269 81.9321
0 371.873 -22.4877 77.8316
0 349.309 -21.1951 81.8875
26 336.191 -47.8363 86.0357
0 345.828 -38.3813 84.2456
26 383.448 -19.0032 79.5744
26 341.145 -45.6203 89.8959
0 363.338 -20.9747 86.7381
0 378.891 -17.4782 82.7817
26 395.238 -27.315 84.2493
26 413.968 10.166 86.5394
26 373.019 -16.3604 94.8777
26 382.398 -17.6736 94.5105
26 403.764 -12.9855 89.5397
0 386.626 -24.4838 95.547
26 369.197 -43.3871 106.089
0 400.085 -23.0423 104.963
0 391.927 -25.6095 109.142
0 393.874 -21.498 110.541
0 392.505 -17.032 109.627
26 416.249 25.9537 110.722
26 423.308 51.4516 109.487
26 407.089 -8.68832 110.652
26 391.783 22.1026 117.559
0 395.739 -26.1568 114.276
0 398.945 -20.6 114.093
26 400.406 -1.37009 115.93
0 393.222 -29.0472 117.442
0 396.235 -26.3496 117.097
26 389.913 -10.3388 121.609
26 388.421 -8.77541 120.51
26 399.3 -14.7203 122.381
26 397.655 -15.9585 121.184
26 433.344 -10.7773 115.233
0 403.152 -5.63034 124.599
26 380.321 23.5895 129.355
26 378.578 10.6194 132.894
0 412.605 -6.50073 128.719
0 402.582 -4.40922 129.164
26 371.934 -49.6224 135.304
0 397.721 17.1492 135.874
26 496.505 65.3011 121.787
0 414.47 -11.1595 132.454
26 405.331 7.18127 136.804
0 401.616 25.3722 138.673
0 398.795 25.5338 139.18
26 491.559 79.9066 125.889
26 464.41 -6.3914 128.562
26 434.771 28.3591 135.284
26 426.838 -28.1503 137.273
0 424.116 -9.17073 136.736
0 421.296 -9.00916 137.243
26 444.359 22.5497 137.636
0 420.919 -4.92888 141.969
0 415.47 -1.74657 143.145
26 475.78 51.445 136.908
26 374.034 -7.551 154.577
26 466.632 30.218 141.486
26 477.41 30.3213 139.637
0 419.779 -2.48665 151.099
26 420.514 17.5345 153.068
26 468.307 26.9629 142.515
0 496.563 69.2575 141.042
26 467.859 89.4426 149.676
26 507.221 132.542 143.498
0 445.273 -9.85196 149.034
0 456.941 -4.77992 147.329
26 382.832 2.36728 160.017
0 502.019 75.8738 144.917
26 421.247 -28.8158 155.621
0 459.871 -10.8527 149.319
0 501.744 64.2443 147.091
0 495.12 74.7517 147.513
26 490.451 87.3623 150.047
0 460.367 -11.0455 152.14
0 455.985 -9.27713 151.571
26 453.638 50.4005 156.19
26 515.59 88.5669 147.785
0 449.003 -19.1695 156.503
0 452.209 -13.6128 156.32
0 460.863 -11.2383 154.96
0 459.109 -12.4907 153.723
0 458.043 -11.0767 155.467
0 456.288 -12.3291 154.23
0 456.481 -9.46996 154.391
0 442.572 -5.80294 157.088
0 473.061 85.65 159.44
0 449.499 -19.3624 159.324
0 453.771 -15.2196 157.396
0 461.359 -11.4312 157.781
0 459.605 -12.6835 156.543
0 456.784 -12.522 157.05
0 456.977 -9.6628 157.212
0 460.641 44.6613 160.282
0 489.515 70.192 158.41
0 503.81 72.2433 156.037
26 452.699 110.36 168.373
0 460.891 -25.9198 159.793
0 453.688 -23.9899 159.731
0 450.868 -23.8283 160.238
0 475.379 -21.0093 157.581
0 455.829 -17.0192 161.292
0 451.446 -15.2508 160.723
0 447.56 -13.6753 162.975
0 461.065 1.41944 160.171
26 492.407 31.8277 158.193
26 489.257 60.6891 159.895
26 491.105 78.6305 160.79
26 489.45 77.3194 159.543
0 486.979 91.7816 161.793
0 455.746 -25.7895 163.628
0 453.119 -22.7688 164.296
0 458.162 -7.18931 163.014
0 463.996 -4.65329 162.162
26 466.4 4.32883 164.443
26 464.389 7.51512 163.77
26 361.737 -60.0176 180.054
26 451.228 -53.6595 164.717
0 456.242 -25.9823 166.448
0 456.435 -23.1232 166.61
0 447.974 -22.6384 168.131
0 460.514 -21.8395 164.52
0 456.628 -20.264 166.771
0 465.86 -9.31207 165.897
26 461.176 7.5874 167.133
26 464.706 8.67931 165.787
26 463.796 19.3721 168.45
26 461.821 18.7107 169.344
26 463.475 20.4216 166.138
26 466.815 38.7447 168.16
0 479.316 89.0215 168.793
0 462.379 -26.4983 168.255
0 461.01 -22.0324 167.34
0 447.872 -6.92869 170.683
26 466.779 8.01738 170.668
26 470.221 10.8564 170.486
26 468.133 9.76295 167.303
26 466.101 16.3038 170.197
26 465.686 18.5297 169.813
26 461.831 19.4825 171.708
26 462.775 20.9227 169.981
26 467.122 35.5978 170.902
26 431.136 37.8139 177.373
26 467.513 38.6767 171.215
26 464.826 38.6259 171.462
26 467.795 41.2732 171.173
0 486.731 65.4707 168.8
0 492.95 73.725 168.271
0 489.45 81.0188 170.845
26 507.412 93.519 169.182
26 505.593 92.3275 168.015
26 460.778 114.949 178.995
0 452.659 -27.4588 171.359
26 467.267 9.56549 172.466
0 466.448 9.06402 171.431
26 467.653 14.5829 170.835
26 465.368 17.6797 172.361
26 464.291 19.686 173.313
26 468.081 38.3467 173.72
0 496.267 73.3706 170.584
0 493.832 79.2505 171.414
0 469.219 92.1413 176.624
26 451.28 -39.7909 175.829
26 452.532 -38.4014 174.319
0 456.939 -13.5174 174.48
26 466.888 16.7785 173.93
0 488.109 70.8033 174.764
0 496.763 73.1778 173.405
0 482.661 73.9856 175.94
0 493.069 77.6124 175.818
0 488.797 73.4696 177.746
26 475.539 84.9676 181.543
26 461.448 98.5353 186.687
26 463.339 98.3371 188.007
26 463.406 100.709 186.233
0 470.046 74.215 186.936
26 485.636 13.7691 190.944
26 434.601 61.4493 200.21
26 479.239 55.1995 195.016
26 478.34 108.824 201.752
26 448.328 12.794 203.345
26 421.241 17.7841 209.999
26 485.697 -10.9865 199.499
26 510.927 85.2981 207.447
