ITEM: TIME
40.0
ITEM: TIMESTEP
0
ITEM: NUMBER OF ATOMS
282
ITEM: BOX BOUNDS pp pp pp
-237.39 237.39
-237.39 237.39
-237.39 237.39
ITEM: ATOMS type x y z
74 -20.0786 29.6582 -61.155
74 -9.43008 -0.609267 -41.2403
74 -12.3548 10.3242 -17.389
0 22.9348 13.2122 -53.6874
74 7.09583 -3.87177 -33.7959
74 5.79115 -1.46793 -33.1726
0 25.3796 11.8798 -52.1817
74 9.43003 -5.09855 -32.6578
74 7.8744 -4.75072 -29.9012
74 8.94551 -3.70934 -27.6185
74 6.30685 -4.32302 -27.1802
74 15.3464 7.70077 -30.9789
74 10.1992 -11.0719 -29.4457
74 11.9157 -6.47338 -31.0646
74 13.068 -3.59723 -30.7346
74 10.3473 -5.98287 -28.4417
0 18.72 -2.66174 -37.6014
74 14.5881 -0.829082 -30.3781
74 11.9077 -1.33996 -29.7857
74 19.9318 12.4044 -30.6311
74 12.9062 -10.5962 -29.8015
74 14.3385 -7.77877 -29.5693
0 0.0851553 1.01236 2.56079
74 21.0367 -1.86244 -32.114
0 16.3081 -35.2453 -49.2108
74 15.1478 -11.608 -28.4262
74 21.047 -6.97724 -33.1742
74 18.166 -9.22253 -30.7268
74 22.3908 -4.186 -32.8005
74 19.5175 -6.44824 -30.349
74 17.8686 -5.90603 -27.6328
74 22.2365 -0.999773 -29.7993
0 31.1613 -1.99635 -47.2318
74 33.4186 -43.8131 -79.6046
0 16.4042 -15.0697 -28.1859
0 33.9292 -14.8599 -53.1278
74 23.3925 -8.19439 -31.4973
74 23.1436 -5.00537 -28.5475
0 35.285 -6.89281 -51.606
74 24.3518 -3.9745 -26.2984
74 23.1703 -1.63068 -25.5106
74 42.9416 -26.4271 -72.7781
74 21.3968 -14.463 -28.064
74 44.0898 -15.3828 -64.8746
0 30.5478 -12.8501 -42.532
74 24.2972 -12.1449 -30.3547
74 23.8238 -10.6654 -25.2606
0 34.7183 -7.51 -44.578
0 33.2127 -7.1524 -41.8168
0 32.8427 -5.85777 -36.7434
74 25.5634 -6.2676 -27.0081
74 25.5114 -3.18541 -24.0053
74 23.9866 -2.64282 -21.2915
0 8.94843 1.77577 5.48083
74 28.6326 0.84943 -28.4346
74 27.0084 1.43884 -25.6846
74 28.037 -10.8346 -28.5077
74 25.0447 -13.0326 -26.0502
74 50.1331 -13.325 -63.3728
74 26.8157 -8.57533 -27.7271
74 26.4268 -7.17758 -22.7501
74 29.6258 -3.22108 -27.2745
74 30.4622 -4.08042 -23.0731
74 32.0631 0.532986 -24.3562
74 29.2672 -1.76588 -22.2898
74 27.9196 0.463434 -21.355
74 30.6573 2.87597 -23.8498
74 44.7937 48.1007 -0.0510716
0 22.2865 -47.2096 -46.2155
0 28.4287 -23.3462 -35.0711
74 28.588 -13.432 -22.2918
74 27.6893 -9.46522 -23.4793
74 30.2842 -8.89755 -24.0889
74 31.4212 -7.99853 -21.7896
0 35.3905 -25.7514 -41.849
74 34.3094 -10.8371 -25.4409
74 31.6611 -11.3491 -24.6005
74 32.7347 -5.49628 -21.4014
74 38.0503 -3.87821 -22.5096
74 35.7725 -2.8389 -23.6419
0 37.7744 40.1534 12.6008
0 31.3817 42.8784 28.719
0 36.3296 -26.7262 -37.5821
0 33.1449 -22.8045 -28.941
0 38.6244 -19.7339 -31.7935
0 38.4745 -11.4092 -27.5105
0 38.4043 -26.764 -31.003
0 48.5976 -22.8544 -44.0937
0 41.0925 -15.9481 -29.1236
0 36.8752 -31.5246 -29.406
0 40.8491 -28.0964 -29.4973
0 38.0344 -25.4694 -25.9296
0 45.043 -17.6381 -30.3791
74 24.4805 10.2952 26.4582
0 42.4204 25.3402 15.2385
0 46.7876 32.5921 11.2379
0 78.7957 67.3454 -6.65156
0 39.4699 -41.1817 -32.1832
0 49.1667 -22.5346 -34.7534
0 47.661 -22.1769 -31.9922
0 48.7967 -21.2399 -29.68
0 49.0894 0.847528 -10.6097
0 44.8885 29.1261 17.9084
0 48.8623 32.5543 17.817
0 54.7118 34.3303 9.8911
0 59.079 41.5822 5.8905
0 64.2119 51.0657 9.27556
0 34.6789 -18.6387 2.19868
0 41.8842 -8.89557 -4.20548
0 43.0433 -2.8403 -0.729091
0 54.9155 -2.49472 -19.6997
0 74.7283 43.4442 -11.2168
0 45.5419 -32.673 -24.5313
0 50.8481 -26.396 -24.265
0 47.8601 -20.5625 -17.5785
0 46.9703 -9.64857 -3.14874
0 47.633 11.1443 10.8482
0 55.0842 32.7383 21.186
0 79.1213 55.5169 2.31505
0 83.2918 60.857 0.269081
0 45.5911 -22.7339 -5.83466
0 55.2645 -9.20498 -9.56898
0 52.2531 -8.48976 -4.04662
0 46.4271 -5.14751 5.04346
0 43.8817 14.4487 26.5174
0 57.7256 33.3177 20.7371
74 75.2092 42.6273 2.53617
74 62.382 51.4622 34.235
74 61.0563 55.5965 33.4883
74 62.1578 56.5693 35.7929
0 60.7978 -34.6347 -37.7294
0 54.2319 -28.7032 -18.4925
0 50.5508 -10.044 0.669188
0 54.3513 -3.4093 3.69664
0 46.8229 -1.62126 17.5025
0 47.0196 0.290558 15.5479
0 63.0084 34.4765 19.8392
74 63.5506 54.2339 35.0511
0 90.0569 56.5399 -4.55414
0 53.3187 -22.9075 -5.22685
0 51.813 -22.5499 -2.46567
0 55.021 -21.3533 -9.94266
0 44.4812 -18.8501 9.38559
0 57.3159 -14.361 -4.15403
0 58.6483 -11.5122 -3.79642
0 65.137 5.93839 1.1104
0 53.2882 10.7111 21.2452
0 69.3075 11.2784 -0.935566
0 60.9127 29.0987 28.4643
0 62.2451 31.9475 28.8219
74 76.2277 31.6867 3.73736
74 80.5179 34.1008 -1.15202
74 78.8493 34.6402 1.55645
74 77.2161 34.7747 4.3097
74 77.5218 33.8194 8.40203
74 75.5035 34.9097 7.14122
74 82.1336 36.3301 3.41438
74 78.171 37.7255 4.97363
74 81.0628 40.1278 2.62367
74 83.9899 42.4512 0.212325
0 71.7452 48.6829 28.2063
0 53.2953 -28.0258 -6.39101
0 55.7868 -19.1217 -2.55701
0 56.9225 -18.1847 -0.244769
0 55.2436 -14.6206 5.6352
0 56.7726 -9.85997 4.03817
0 60.3999 -0.0188563 10.1844
0 57.042 7.10924 21.9443
74 40.4464 15.4877 54.1535
74 83.7802 31.7895 -1.71765
74 80.1028 32.4089 0.83848
74 78.6142 32.6598 3.25955
74 78.8105 31.7611 7.38513
74 84.5756 33.6854 -3.63354
74 85.4969 35.7161 -2.23247
74 85.0665 33.8734 -0.408183
74 83.9299 36.0839 0.672801
74 83.6003 34.261 2.50983
74 81.7695 34.4952 5.33045
74 82.5717 35.2409 7.706
74 80.0504 34.5415 8.08196
0 61.5286 39.655 40.1329
74 90.4818 37.0965 -3.73207
74 88.0108 36.3018 -2.92333
74 89.0429 37.4102 -0.79483
74 86.5218 36.7498 -0.0383902
74 85.0767 38.5902 1.37661
74 87.3709 40.2077 -3.95258
74 87.948 40.9478 -1.32376
74 85.4746 40.4073 -0.66888
0 60.0838 -27.2246 -10.0501
0 57.6883 -15.953 7.14088
0 61.8588 -10.613 5.09492
0 69.1601 19.3058 19.7157
0 70.4925 22.1546 20.0733
0 61.2851 27.5067 39.7592
0 56.7915 33.6978 49.2069
0 61.5426 -37.8187 -15.1396
0 60.037 -37.4611 -12.3784
0 56.6556 -35.4513 -1.78261
0 61.9853 -24.0559 -0.352178
0 60.503 -18.5801 3.57316
74 72.7673 -17.9669 -14.532
0 58.4541 -13.7214 14.5265
0 63.1678 -12.8824 4.28837
0 55.6394 -11.0944 18.0943
0 74.7357 42.552 37.8881
0 74.7591 47.6703 39.0523
0 113.83 61.7546 -8.59461
0 61.9385 -34.2924 -2.68049
0 58.4307 -18.8397 13.3624
0 63.9336 -10.6508 11.674
0 62.4279 -10.2932 14.4352
74 108.194 51.9731 -0.056747
0 67.3946 -36.3401 -6.69716
0 60.7021 -16.9656 17.9869
0 85.9944 32.0439 23.6172
0 87.3268 34.8927 23.9748
74 109.594 47.8833 0.739217
74 105.781 49.398 2.10977
74 109.638 52.713 2.27411
0 65.5189 -34.6878 1.13744
0 67.8372 -22.5773 8.09022
0 85.9476 21.8074 21.2889
74 112.035 46.4968 2.16868
74 109.293 46.1892 2.82123
74 113.34 49.3175 2.65663
74 114.932 53.7704 1.16581
74 112.258 53.1994 1.65026
74 117.586 56.2837 -1.19344
74 57.2838 -53.928 9.08501
0 64.6057 -28.8922 14.4031
74 115.962 49.6641 2.25515
74 112.938 47.4394 4.58107
74 118.812 52.1212 0.193367
74 117.253 52.4781 2.85158
74 58.132 -54.9663 13.1633
74 55.2238 -6.15577 57.9394
0 88.6617 37.4442 40.7008
74 113.067 45.311 6.41877
74 115.612 47.6781 4.14487
74 118.389 51.4715 6.81893
0 75.6678 -41.3121 2.08677
74 120.837 44.0838 2.02582
74 120.446 50.5137 8.41482
74 125.886 56.6982 8.74294
0 81.9131 -36.0099 6.61991
74 41.3749 -69.1196 51.2696
74 133.086 32.9229 2.72102
74 134.31 30.4377 2.24283
0 141.914 19.2373 1.34064
74 132.957 7.12346 13.2911
0 142.263 12.5271 11.4714
0 145.101 15.0183 9.06782
74 109.403 -95.4329 -22.3699
0 151.716 19.0259 8.52755
0 155.62 7.09939 4.94374
0 156.779 13.1547 8.42014
74 178.885 -4.86037 -21.7167
0 185.958 6.38254 -18.3336
0 183.736 14.4476 -4.26148
74 186.423 1.0732 -15.0354
0 185.218 8.97178 -8.18682
0 181.664 14.1881 5.52774
74 187.799 -4.51583 -13.3999
0 186.134 2.87872 -5.08411
0 187.836 4.43293 -9.79991
0 190.305 8.21877 -7.13007
0 184.108 12.8556 7.03343
74 177.296 -17.4104 -0.757949
0 187.27 3.81573 -2.77187
74 195.33 -1.10888 -15.1259
74 190.569 -22.7525 -13.0375
74 187.969 -23.118 -12.6299
74 191.988 -20.5145 -14.0317
74 199.182 -2.98147 -14.608
0 193.468 -1.11852 -0.567039
0 194.801 1.73031 -0.209432
74 197.046 -25.5859 -23.353
0 191.892 -16.1157 -1.29833
74 201.259 10.2946 24.6431
74 209.371 -48.6924 -10.2517
