ITEM: TIME
40.0
ITEM: TIMESTEP
0
ITEM: NUMBER OF ATOMS
450
ITEM: BOX BOUNDS pp pp pp
-237.39 237.39
-237.39 237.39
-237.39 237.39
ITEM: ATOMS type x y z
74 72.7901 30.1151 -107.665
74 74.6591 26.3075 -108.59
74 73.0877 27.4244 -106.08
74 71.61 28.6481 -103.568
0 62.9459 34.9106 -91.135
74 73.7345 29.7912 -105.01
74 74.6763 27.0516 -100.962
0 40.3338 37.6777 -66.3723
0 72.7316 25.937 -96.9759
74 108.433 92.6847 12.638
74 31.2955 33.8075 -65.2992
74 82.4333 28.6947 -85.1327
0 55.1813 22.5076 -78.2274
0 53.6473 23.663 -75.7113
0 61.1016 21.9949 -74.3825
0 74.2324 18.4355 -84.6521
0 49.4436 12.565 -81.1418
0 53.7386 18.4354 -75.246
74 78.4009 38.3885 -42.6836
0 45.6695 15.7982 -70.9907
0 56.2225 17.7363 -67.4376
0 59.6589 17.9227 -71.4011
0 68.5254 14.4099 -80.31
0 66.9913 15.5653 -77.7939
0 52.479 26.8866 -50.0301
0 62.0515 22.4513 -64.058
74 75.0446 32.2937 -45.7452
74 77.8269 33.4642 -44.6789
74 76.2117 34.5926 -42.1985
74 78.9692 35.7426 -41.1227
74 76.6516 37.0312 -40.9834
0 27.6902 21.0161 -46.5199
0 43.0611 15.3788 -64.4244
0 71.6847 6.87138 -84.8769
0 53.9824 19.8142 -59.8026
0 54.8104 19.5811 -57.1998
0 53.2764 20.7366 -54.6837
0 71.7153 12.7884 -77.6205
74 78.2558 30.7178 -43.1982
0 59.3819 10.1978 -72.0045
0 62.9402 11.0736 -68.2463
0 59.8721 13.3845 -63.2141
0 59.4732 4.97022 -71.5392
0 57.2637 12.9651 -56.6479
0 54.9017 14.3535 -56.7346
0 55.7297 14.1205 -54.1318
0 51.8337 16.6644 -51.7024
0 64.5962 10.6076 -63.0407
0 59.9941 14.0739 -55.4924
0 55.392 17.5402 -47.9441
0 69.0743 29.0014 -34.9105
0 74.535 31.2191 -32.5996
0 22.4427 14.2602 -40.6438
0 34.0395 11.8561 -48.3973
0 49.9007 9.40551 -57.5114
0 54.1651 9.35892 -58.8721
0 54.993 9.12589 -56.2693
0 59.2574 9.0793 -57.6299
0 53.8273 12.7786 -52.6844
0 61.1598 10.4212 -59.0773
0 61.9877 10.1881 -56.4745
0 59.6257 11.5766 -56.5612
0 60.4537 11.3436 -53.9584
0 57.3857 13.6544 -48.9262
0 62.3561 12.6854 -55.4057
0 63.1841 12.4524 -52.8029
0 59.288 14.9963 -50.3735
0 66.4353 22.6649 -35.6006
0 79.2284 22.5252 -39.6826
0 21.3377 6.7683 -43.85
0 34.9894 12.3125 -38.0728
0 48.8263 7.83062 -53.4613
0 59.2268 3.1623 -64.8863
0 48.4886 11.2503 -47.2736
0 43.1805 15.639 -34.6064
0 62.7851 4.03812 -61.1281
0 53.9493 13.468 -44.9627
0 54.7772 13.235 -42.3599
0 64.3497 8.79969 -56.3878
0 65.1777 8.56666 -53.785
0 62.8157 9.95512 -53.8717
0 62.478 13.3748 -47.684
0 56.3419 17.9965 -37.6196
0 59.9002 18.8724 -33.8614
74 81.4817 13.8314 -46.9818
0 45.0216 5.14689 -50.5666
0 44.3461 11.9863 -38.1913
0 61.7107 2.46323 -57.0779
0 49.4385 11.7067 -36.9491
0 52.8749 11.8931 -40.9126
0 49.1008 15.1264 -30.7615
0 64.9619 12.6757 -39.8756
0 71.9566 13.738 -40.0808
0 68.8886 16.0489 -35.0486
74 79.369 10.0958 -46.7813
74 86.4507 13.4639 -45.622
0 35.0807 7.08488 -37.6075
0 28.2386 12.629 -22.4242
0 40.1731 6.80527 -36.3653
0 16.4872 30.9761 13.7514
0 48.3641 10.1318 -32.899
0 46.0021 11.5202 -32.9857
0 61.0047 3.38564 -51.959
0 49.5604 12.3961 -29.2274
0 61.4949 6.57231 -43.1686
0 59.9609 7.72775 -40.6525
0 55.3588 11.194 -33.1042
0 52.9968 12.5825 -33.1909
0 35.4165 26.2146 -0.394922
0 59.6232 11.1474 -34.4648
0 59.9915 13.6447 -33.3961
74 76.9476 6.38882 -46.3988
0 72.7846 13.505 -37.478
74 81.8486 8.78598 -46.6906
74 82.6869 10.6442 -42.7627
74 86.962 10.6203 -44.0984
74 84.4917 9.82602 -45.3321
74 88.6452 9.74958 -46.6647
0 30.7531 17.8469 -7.35943
0 49.5298 6.47906 -36.4838
0 33.4835 18.9558 -6.20398
0 53.0881 7.35488 -32.7256
0 46.952 11.9766 -22.6612
0 52.7504 10.7746 -26.538
0 57.0148 10.728 -27.8986
74 84.7876 6.92523 -43.9765
0 79.8706 9.33961 -37.2179
74 87.4994 7.91515 -42.6435
74 85.9083 9.0166 -40.0395
74 90.9214 8.15323 -46.7024
74 89.4419 9.28705 -44.0652
74 88.3375 7.79829 -40.0372
74 86.8409 9.00963 -37.3894
0 29.4956 3.74867 -25.5438
0 45.7251 3.79533 -33.5892
0 52.3514 2.36029 -34.8631
0 58.1498 1.15826 -38.7399
0 49.6517 7.16844 -28.7622
0 48.1177 8.32388 -26.2461
0 47.4116 9.24628 -21.1272
0 38.2075 16.1789 -6.03058
0 32.7774 19.8782 -1.08508
0 57.8121 4.57797 -32.5522
0 51.676 9.19969 -22.4878
0 57.4744 7.99767 -26.3646
0 56.3087 11.6504 -22.7797
0 59.867 12.5262 -19.0215
0 81.0057 -0.23012 -48.0592
0 77.5999 5.50045 -36.8393
74 74.4802 12.4478 -26.2053
74 72.2732 11.5373 -24.8832
74 73.0057 11.3163 -22.3171
74 90.9422 2.93328 -46.2767
74 89.4665 4.12666 -43.6414
74 76.9267 12.8569 -29.8836
74 78.7757 10.1162 -26.5917
74 77.3825 11.1366 -23.8352
74 75.4892 14.7079 -22.3137
74 92.3793 2.02148 -48.9532
74 90.181 4.0122 -41.0026
74 87.234 6.32011 -35.9793
74 85.4533 10.0764 -35.0764
74 83.3696 8.91678 -33.546
74 84.2334 8.64197 -30.8997
74 81.9113 10.1212 -30.923
74 83.0114 9.679 -28.4464
74 81.2444 13.4738 -26.9718
74 79.7985 14.707 -23.7131
74 91.5166 6.24108 -37.4622
74 89.1912 7.59937 -37.4345
74 90.1124 7.30194 -34.8103
74 88.5968 8.4407 -32.2431
74 86.1599 9.88788 -32.3966
74 87.125 9.64713 -29.8495
74 82.0139 13.3172 -24.2702
74 82.8953 13.1786 -21.5722
0 29.9552 1.01835 -24.0097
0 33.2064 11.2309 -6.80744
0 31.6724 12.3863 -4.29134
0 42.7789 6.79558 -20.8353
74 66.704 -8.34451 -55.8846
0 39.3732 12.5261 -9.61543
74 72.3418 -8.74815 -52.576
0 52.1357 6.46937 -20.9538
0 49.7737 7.85783 -21.0405
0 46.3679 13.5884 -9.82063
0 70.2369 1.9409 -37.7029
0 72.9672 3.04974 -36.5475
0 59.161 13.4486 -13.9026
74 75.3175 9.96717 -22.5038
74 73.8271 11.1436 -19.7865
74 74.3468 13.3699 -18.3588
74 91.7805 2.77774 -43.6227
74 79.4844 12.3805 -25.1069
74 78.1641 10.8816 -21.3037
74 78.9962 10.675 -18.7633
74 76.6659 12.0251 -18.5755
74 77.1786 14.3159 -17.213
74 92.5107 2.64016 -40.9517
74 93.3317 2.47214 -38.2643
74 92.4644 5.97107 -34.88
74 90.4748 4.78242 -33.4782
74 88.1419 9.39449 -27.3568
74 85.3012 8.31492 -28.4384
74 83.9278 9.54126 -25.8678
74 84.5909 9.25903 -23.2443
74 80.6119 14.5091 -21.2145
74 81.8493 11.6729 -17.6314
74 89.985 10.7254 -28.8443
74 90.4222 8.0116 -27.158
74 85.8587 11.576 -19.8684
74 83.7557 12.9708 -18.9837
74 84.654 12.7487 -16.4902
0 20.9036 14.5573 6.06495
0 19.3696 15.7127 8.58104
0 25.168 14.5107 4.7043
74 65.9902 -12.6094 -50.7385
0 45.6006 2.6768 -19.2145
74 67.205 -11.1431 -54.5388
0 47.503 4.01866 -20.6619
74 72.8216 -11.472 -51.1215
74 70.5918 -10.041 -50.9274
0 59.0997 1.61462 -28.4154
0 51.4296 7.39178 -15.8349
0 56.522 7.11216 -14.5927
74 75.4877 10.778 -14.7273
74 76.0618 10.6479 -12.1509
74 93.5158 -0.124754 -37.0175
74 85.5512 5.66145 -26.7542
74 79.8231 10.4834 -16.2525
74 80.6586 10.3013 -13.7621
74 78.3288 11.5342 -13.5592
74 92.7154 3.25536 -33.1085
74 94.2475 5.45501 -29.6482
74 91.8614 6.82897 -29.6811
74 92.249 4.26755 -28.326
74 89.2989 6.44904 -23.0477
74 86.9357 7.87444 -23.1935
74 87.8943 7.66687 -20.6142
74 82.7613 11.4406 -15.1932
74 82.7431 11.4856 -12.533
74 91.126 7.80116 -24.583
74 89.1915 9.97235 -17.2163
74 87.0585 13.8186 -16.3983
74 85.4703 12.549 -13.9876
74 84.7431 12.8357 -11.4131
74 87.8485 13.7961 -13.8612
74 1.93154 14.3305 19.6087
74 6.49076 17.3326 26.6506
0 18.6329 10.7182 6.44354
74 7.73589 19.3281 30.3598
74 10.6522 20.484 31.3361
74 8.21653 21.8526 31.3123
74 13.93 20.5083 27.7473
74 67.9498 -16.3508 -51.746
0 46.0602 -0.0535209 -17.6805
0 39.9241 4.5682 -7.6161
0 35.322 8.0345 -0.0678038
0 18.4477 20.7442 27.6093
74 70.0028 -15.0221 -52.9373
74 68.3512 -13.9507 -50.3893
0 38.7584 8.22093 -4.03125
0 39.5864 7.98791 -1.42845
74 71.0314 -12.7223 -49.2974
0 30.7506 17.4178 14.7369
0 31.5786 17.1848 17.3397
0 51.1832 5.58386 -9.18194
0 43.5131 11.361 3.39855
0 55.4476 5.53727 -10.5426
0 60.0803 7.98798 -10.8345
0 66.3689 9.97264 -5.92079
74 94.7388 -3.69389 -40.7541
0 94.5023 -1.72145 -35.1637
74 95.7909 -1.59921 -37.0294
74 97.3099 0.39018 -33.2827
74 94.4409 -0.497427 -34.426
74 95.3264 -0.680793 -31.8219
74 94.4651 2.80308 -27.9601
74 95.3344 2.60283 -25.3812
74 93.1342 4.06067 -25.7091
74 94.396 6.17007 -22.0182
74 91.6575 5.10006 -23.0417
74 92.7345 7.3744 -19.4906
74 90.2263 6.24877 -20.5039
74 91.4926 8.57329 -17.1686
74 93.9253 9.63294 -16.1194
0 96.9255 8.7241 -20.5642
74 94.7649 9.61693 -13.4393
74 93.3159 12.9745 -10.1868
74 5.07438 12.7479 22.1219
0 27.9284 -1.44205 -8.18776
74 8.63356 13.5409 25.7554
74 5.5034 15.177 23.1452
74 4.02541 16.2173 25.7263
0 25.2287 3.36611 -2.08681
74 12.6077 13.2185 24.3643
74 10.5655 14.9546 24.4192
74 9.4522 15.5617 29.4196
0 24.1849 7.70822 9.21973
74 13.6259 15.2054 28.0544
74 12.2268 16.4705 30.6112
74 10.0038 17.9491 30.4
74 17.5548 16.6975 24.7299
74 15.9909 18.1747 27.2293
74 14.1024 17.6325 29.0715
0 38.8497 2.99331 -3.56596
0 35.7817 5.30418 1.46624
0 34.2477 6.45961 3.98234
0 31.8857 7.84806 3.89564
74 20.6364 15.6352 27.498
74 18.9938 17.0434 29.9774
74 16.6441 18.4352 29.8547
74 71.1708 -17.9043 -49.2147
0 37.684 6.64604 0.0188938
0 33.9099 9.87931 10.17
74 23.091 19.0152 27.0969
74 21.6965 18.1066 31.075
74 18.9818 21.699 29.2611
74 26.1432 18.0432 29.9778
74 23.5111 21.3799 28.1845
74 24.0007 21.5273 30.7573
74 21.62 22.7337 30.7551
74 84.5778 -23.2527 -62.4623
74 26.3332 22.4168 29.4562
74 23.9315 21.9734 33.3341
0 89.3487 -13.2758 -50.9187
74 98.2021 0.15877 -30.6711
74 99.08 -0.037064 -28.123
74 96.2207 -0.893478 -29.2197
74 96.2898 2.2711 -22.8699
74 98.2182 3.52543 -24.3991
74 97.1019 2.093 -20.3316
74 95.0866 5.96793 -19.4546
74 92.1133 8.33658 -14.5711
74 96.2769 8.29556 -15.9847
74 96.7484 5.66063 -14.2893
0 5.19445 0.635717 8.85327
0 18.3253 -2.92376 -1.41632
0 22.958 -0.473051 -1.70822
74 8.17693 11.0903 24.7301
74 10.1137 12.4732 23.2888
0 23.8166 5.21092 8.15098
74 15.3713 11.1055 26.6792
0 39.6471 -3.15671 -8.21956
74 19.8464 11.0038 25.1737
74 17.4211 12.0978 25.3286
74 15.8198 13.494 27.8316
0 43.9115 -3.2033 -9.58021
0 42.3774 -2.04787 -7.06411
0 38.4814 0.496018 -4.63471
0 39.3094 0.262993 -2.03191
0 32.3453 5.11774 5.42968
74 22.5599 12.0252 26.4293
74 20.2118 13.2798 26.4757
74 18.301 16.878 27.3495
0 41.2117 1.60486 -3.47926
74 25.0351 15.3474 26.2791
74 22.6783 16.6123 26.0535
74 21.3694 15.6944 30.0679
0 36.2719 8.49086 10.2567
74 25.7919 15.6085 28.8548
0 42.0703 7.28883 6.37994
0 53.2988 2.38749 -2.44231
0 44.8007 8.39767 7.53539
74 99.4484 -2.43471 -26.6912
74 98.1365 -1.50465 -24.003
74 99.8576 3.13748 -19.2416
74 98.2121 4.44539 -16.8882
74 98.8052 1.82411 -15.2947
0 22.1907 -11.3846 -11.1021
0 23.0493 -5.70067 -1.24293
0 20.3496 -0.89251 4.85802
0 37.3764 -6.99587 -7.84097
0 44.3711 -5.93362 -8.04616
0 30.5649 4.46526 14.5987
0 44.7394 -3.43632 -6.97741
0 38.6033 1.1854 3.08698
74 24.945 10.8874 26.2899
0 42.1616 2.06122 6.84523
0 37.5596 5.52751 14.3935
0 44.892 3.17006 8.00068
74 101.197 -3.1186 -21.5518
74 102.132 -2.87302 -18.8856
0 11.4219 -9.21362 -0.745834
0 28.1416 -5.98028 -0.000778409
0 25.9015 -3.90245 7.63421
0 35.9643 -5.15106 2.39682
0 33.6023 -3.7626 2.31012
0 56.9484 -1.96431 1.78123
74 -10.5588 -17.2836 -3.32716
0 19.3971 -1.77802 16.6299
0 14.2109 3.30007 37.0187
0 45.0746 -7.28518 8.93126
0 65.2001 -9.7824 -1.54353
74 85.3359 -7.84097 -6.10812
74 105.535 9.95856 16.7951
0 36.5153 -13.109 4.39615
0 111.738 9.75727 25.8208
0 43.6319 -11.3574 11.9126
0 73.6656 0.839885 24.6226
74 19.1298 -14.4248 19.1022
74 25.2613 -15.4562 17.7319
0 72.5912 -0.735004 28.6727
0 97.1337 3.32756 31.8154
74 68.6061 0.992966 38.2619
0 78.8493 -4.66735 26.33
74 69.4029 1.11053 41.0321
0 110.755 2.95477 30.3362
0 116.215 5.17245 32.6471
74 71.7196 -0.581515 40.9006
74 88.1831 0.257804 40.6494
74 116.21 6.21316 42.9459
0 142.752 5.34926 34.8077
0 149.591 -0.624017 41.7208
74 124.876 -11.5436 34.6574
74 192.935 -0.231989 41.0094
74 138.946 -3.42909 55.2245
0 189.134 -5.12521 47.9864
0 202.508 -7.30592 53.1602
0 222.878 -8.42438 58.1288
74 213.954 -13.4345 59.8234
0 232.234 -8.75058 58.0103
74 240.002 -12.1901 51.5827
74 198.373 -17.9894 62.7819
0 243.247 -9.54284 63.0974
74 37.5613 -121.324 -69.5638
0 221.557 -11.8072 68.8319
74 240.118 -9.54016 72.1214
74 242.346 -8.34608 70.7729
0 257.696 -10.1487 64.221
0 255.334 -8.7602 64.1343
74 218.361 -17.5769 70.7287
74 243.389 -10.9578 74.8696
0 282.238 -6.08609 67.3637
0 268.709 -10.9409 69.3081
0 269.537 -11.1739 71.9109
74 303.246 -7.34467 63.935
74 255.624 -12.8222 77.432
74 303.279 -9.07419 70.393
74 304.958 -12.9043 69.6899
0 317.026 -13.7274 66.1995
0 312.025 -18.6754 65.4227
0 309.326 -13.8672 71.5236
0 317.148 -13.038 73.9212
74 317.817 -3.99397 100.86
74 315.823 -32.0481 58.7517
0 317.024 -14.1565 88.2958
74 343.838 -17.1059 76.9463
74 341.326 -17.6818 76.0592
74 310.053 -29.7175 74.1185
