ITEM: TIME
40.0
ITEM: TIMESTEP
0
ITEM: NUMBER OF ATOMS
242
ITEM: BOX BOUNDS pp pp pp
-237.39 237.39
-237.39 237.39
-237.39 237.39
ITEM: ATOMS type x y z
74 360.173 212.648 -32.685
74 98.389 47.696 -62.7129
74 71.9362 28.3878 -59.25
74 67.8381 27.7212 -53.2653
74 57.3924 39.8355 -46.2104
74 55.4786 43.5888 -45.134
74 57.7666 38.7691 -43.7618
74 96.8443 41.1247 -45.0299
74 270.886 159.073 -23.6469
74 264.431 180.147 -10.9892
0 62.731 28.6968 -41.531
0 280.447 166.079 -14.5661
0 294.408 168.358 -15.1334
0 292.27 167.855 -16.774
0 273.485 174.433 -11.1018
0 270.496 175.301 -10.5259
0 293.272 170.731 -15.9058
0 290.283 171.598 -15.3299
74 268.547 191.067 -5.78965
74 19.7172 -0.44902 -43.1397
74 88.6536 55.2503 -29.306
74 307.521 182.965 -7.46872
0 26.5116 0.50358 -39.1476
0 62.4501 28.0638 -33.3366
0 89.404 48.7339 -28.9783
74 330.057 138.307 -22.9165
0 312.929 170.64 -9.43057
0 304.813 171.874 -9.91931
74 225.861 143.347 -6.22175
74 270.853 177.959 -0.640649
74 41.4348 -14.2987 -39.4699
0 89.8403 51.978 -22.9046
74 255.093 131.074 -11.3198
0 61.167 24.5554 -26.0103
0 93.0967 40.6143 -23.6721
74 256.386 132.878 -7.56307
74 290.682 155.688 -1.47027
0 55.5901 10.5477 -25.1458
0 63.4212 10.3164 -27.646
0 56.5923 13.423 -24.2776
74 2.27217 34.6074 -11.3023
74 100.986 25.2025 -25.449
74 137.723 77.6379 -9.84664
0 305.953 167.866 2.03655
74 34.5941 16.1361 -17.2069
0 65.7106 15.0652 -22.9207
0 65.7283 24.559 -19.7401
0 64.7437 31.1775 -17.4277
74 102.916 25.8212 -23.6598
0 111.734 28.1551 -21.2456
74 248.266 97.5831 -13.4811
0 337.078 132.579 -9.40741
74 291.56 154.464 2.99251
74 291.214 159.363 3.24965
0 64.1249 3.06482 -21.7639
0 82.9274 5.98038 -24.2556
0 64.1425 12.5587 -18.5833
0 66.9979 16.9386 -19.0635
0 67.1492 21.1846 -15.9787
0 61.1712 22.9204 -14.8268
74 252.153 106.086 -6.0432
0 344.477 127.468 -6.79792
74 290.29 155.377 5.30256
74 292.691 156.192 6.72606
0 135.151 59.5558 -7.92534
0 265.876 132.418 4.03195
74 324.064 135.111 0.520748
74 329.682 137.595 2.04656
74 52.3369 5.35894 -13.8623
74 37.6242 9.26948 -9.6632
0 111.471 37.0159 -9.87058
74 240.306 72.9057 -9.00678
0 232.308 75.8768 -6.6912
0 233.31 78.7521 -5.82299
74 240.339 87.2904 -4.56951
0 314.137 121.775 0.890632
74 51.6075 1.70068 -11.7844
74 48.5399 2.57373 -11.4131
74 49.556 5.3169 -10.3122
74 37.7448 8.52381 -6.88952
74 42.4869 9.32827 -8.30907
74 39.7562 9.93885 -8.03739
74 78.2932 11.2065 -9.71549
0 108.883 22.1403 -9.58205
74 102.454 48.5862 -1.08983
0 137.859 58.0548 -0.306794
74 231.005 68.1268 -5.20382
74 241.524 75.0192 -5.35403
74 244.399 88.1224 -1.14709
0 236.468 91.624 -0.133587
0 227.501 94.2278 1.59424
0 236.62 95.87 2.95118
0 314.288 126.021 3.9754
74 299.486 136.437 10.0611
74 301.468 138.027 9.55584
74 326.848 140.09 8.53965
74 324.885 143.826 9.91105
0 12.2786 -5.67827 -8.01884
0 61.1224 -7.19604 -13.1851
74 111.652 -17.0582 -18.7767
74 36.922 4.65748 -4.45727
74 37.7848 7.39947 -3.91112
0 66.2672 1.93261 -8.93985
74 40.8036 7.73779 -6.96534
0 59.3046 10.287 -5.47561
74 82.3628 8.02158 -9.2973
74 82.9969 10.5114 -8.25874
74 80.7997 10.1822 -9.98643
0 105.159 9.63717 -10.0659
74 205.045 71.9662 2.15566
74 241.678 69.6786 -5.46135
74 247.507 72.0474 -3.74677
0 228.922 90.8533 5.35561
0 230.775 92.358 4.00726
0 231.778 95.2333 4.87547
74 220.186 114.671 14.6846
74 222.433 118.042 12.6179
0 309.597 129.63 8.98446
74 302.17 138.705 13.6331
0 0.758943 1.03757 0.358663
0 25.6731 -3.03059 -3.38065
74 38.0772 2.1898 -3.78184
74 39.1114 5.13292 -3.02303
0 105.444 8.6353 -7.07697
0 105.311 13.8832 -6.98116
0 115.28 14.1547 -7.84077
0 132.282 44.0471 0.557671
0 200.267 72.9246 5.43047
0 201.269 75.7999 6.29868
0 187.175 78.7688 6.96182
0 203.122 77.3045 4.95033
74 172.448 85.3834 11.1767
74 217.468 78.7866 4.53206
0 215.264 97.0664 12.0925
0 216.267 99.9417 12.9607
0 210.289 101.678 14.1126
0 297.058 123.977 13.3132
0 312.02 129.131 13.614
0 288.108 136.074 18.2216
0 308.064 146.111 19.6829
74 41.3062 0.321749 -1.27235
74 39.4184 4.13082 -0.0592734
0 92.6376 13.4777 -2.55665
0 89.6486 14.3456 -1.9807
0 110.723 12.5161 -2.92752
0 115.565 13.1528 -4.85181
0 205.545 76.8054 9.57991
74 218.278 83.3589 9.78447
74 280.567 120.569 17.8356
74 277.869 121.286 18.4088
74 274.856 122.051 18.8359
0 298.194 121.604 14.0856
0 295.205 122.472 14.6615
0 304.323 124.114 16.0185
0 305.325 126.99 16.8867
0 295.222 131.966 17.8421
74 39.7318 -2.04073 2.93075
74 38.5627 0.306693 2.31359
0 27.1293 12.5827 6.74187
74 85.3844 7.33413 0.158378
74 117.478 75.4381 20.0377
74 217.137 82.6074 13.8703
74 209.23 83.6046 13.9189
0 230.797 100.217 18.3713
74 271.963 122.943 19.5734
0 300.465 116.859 15.6304
74 284.593 122.229 18.2178
74 283.768 123.638 20.4876
74 282.733 120.759 19.6083
74 281.926 122.229 21.8143
74 279.82 121.703 20.1947
74 278.868 123.097 22.3377
74 276.224 124.861 19.7315
74 275.312 126.011 21.9961
74 273.19 125.764 20.3022
74 270.125 126.697 20.8847
0 294.639 122.841 19.867
0 299.632 127.724 21.0275
0 293.654 129.459 22.1794
0 298.648 134.342 23.3399
0 318.604 144.379 24.8012
74 83.7643 5.65115 1.53267
74 207.426 82.2754 15.4595
0 231.933 97.8443 19.1437
74 274.255 122.671 24.0837
74 54.6253 -5.18612 7.2498
74 204.165 65.7481 15.3329
0 310.987 105.633 17.5681
0 322.127 122.52 23.8421
0 313.16 125.123 25.5699
0 308.033 125.489 24.5052
0 25.1291 5.1971 16.1889
0 313.445 124.122 28.5589
0 298.733 98.9778 24.8858
0 303.779 132.342 35.588
0 35.4817 -19.7688 11.8613
0 53.567 -20.7304 11.4904
0 21.9576 -18.8036 18.5024
74 136.135 23.5526 19.5437
0 28.2206 -21.5413 20.3395
0 20.3719 -30.8039 19.6591
0 50.7159 -26.7453 23.154
74 83.3358 68.7636 52.934
0 19.9574 -26.1891 27.9494
74 38.024 -19.7037 29.1964
74 42.114 -17.8665 29.4627
74 77.3251 13.1364 36.4305
0 17.2357 -35.8169 28.3337
74 60.7744 -41.9584 24.6054
0 24.2336 -25.1836 31.2306
0 57.2815 -20.9911 31.1606
74 40.939 -16.6815 31.8118
0 22.4965 -41.43 29.3026
0 52.5731 -26.8756 32.9891
0 15.819 -34.0774 35.7558
0 37.7971 -8.79614 42.1342
0 21.0974 -30.1966 39.9053
0 35.0755 -18.4239 42.5185
74 3.01563 -30.4265 45.8241
74 1.9815 -32.7694 44.9869
0 25.641 -39.6869 42.9949
74 7.24816 -33.9943 48.9595
0 48.0378 -20.6553 52.2664
74 211.177 143.333 90.8916
0 48.3228 -21.6572 55.2554
74 67.4174 -14.7559 59.8226
74 64.9417 -14.6317 60.6355
74 65.2928 -14.259 58.0194
74 65.3966 -11.4603 61.5255
74 78.8779 -39.1799 52.4781
0 51.7306 -28.7748 57.5726
74 65.6265 -16.6791 58.9303
74 62.2823 -15.2426 61.3786
74 63.3905 -12.6637 60.2756
0 77.8336 -6.73403 64.1474
74 44.1044 -41.1551 57.4934
0 78.9871 0.387253 68.1004
0 82.3948 -6.73041 70.4176
0 79.4058 -5.86248 70.9935
74 65.7095 -1.30086 74.8705
74 89.0125 -5.26937 72.6755
74 -1.30142 2.34498 87.2175
