ITEM: TIME
40.0
ITEM: TIMESTEP
0
ITEM: NUMBER OF ATOMS
408
ITEM: BOX BOUNDS pp pp pp
-237.39 237.39
-237.39 237.39
-237.39 237.39
ITEM: ATOMS type x y z
74 -33.5101 8.96826 -5.28825
0 5.73522 -2.43619 -1.09678
74 2.49322 -41.1305 9.26759
74 5.91264 -11.0822 -14.7663
74 5.49845 -41.438 12.5643
74 7.06914 -39.8669 10.745
74 8.24062 -33.818 7.7485
74 8.59551 -30.6628 4.5624
0 9.95382 -21.9882 14.7517
0 8.19287 -23.3933 19.4927
74 8.82433 -11.4952 -11.6003
74 12.1287 -8.72099 -11.2524
0 15.1122 -3.43815 14.7689
74 14.0045 -34.2427 10.7264
74 13.4517 -29.7251 -31.8193
74 14.3567 -31.0841 7.57915
0 17.9638 -6.92291 5.28547
0 19.7314 -19.8461 14.7916
0 22.1824 -26.4749 21.1339
74 21.9827 -25.3364 -5.03863
74 23.3681 -23.641 -3.42146
74 23.8026 -20.8164 -3.57732
0 22.6682 -37.6633 0.563668
74 24.7994 -25.6095 -4.73545
74 24.0725 -21.1334 -6.77858
74 26.9484 -21.0101 -3.4025
74 27.3348 -18.1127 -6.60087
74 24.1607 -17.9982 -3.56018
74 25.7241 -16.4437 -5.14736
74 24.84 -11.9537 -10.0144
0 26.69 0.106998 0.572009
0 27.0252 3.25453 0.572705
74 33.5034 39.8 2.6243
74 33.4725 39.8244 8.94538
74 29.5957 -24.6287 -6.30818
74 27.6729 -25.9695 -4.83454
74 30.0275 -21.4331 -6.34826
74 27.2045 -21.2207 -6.57495
74 30.4776 -18.2018 -6.4222
74 30.7506 -15.2977 -6.5191
74 29.3137 -13.6062 -5.02926
74 29.6639 -10.8907 -4.99955
0 30.1269 -11.4062 27.4941
74 36.7673 39.5447 2.59096
74 33.3049 36.8862 5.94257
74 35.2859 41.3151 1.18827
74 32.3777 -24.8497 -6.31202
74 31.7507 -20.0964 -7.91113
74 33.3173 -18.6364 -6.28076
74 33.9489 -15.539 -6.43747
74 32.5595 -13.852 -4.95658
74 34.3976 -12.3385 -3.47003
74 34.6295 -9.4606 -3.59839
74 32.7548 -10.5096 1.09318
74 34.8348 -6.54482 -3.6612
74 33.0961 -7.83455 -2.0421
74 34.9125 -6.3307 -0.43341
74 34.9845 -3.42002 -3.57765
74 39.9209 39.3972 2.52889
74 39.6619 39.5263 5.79016
74 39.4829 39.5823 8.95989
74 36.2399 36.8539 9.08186
74 40.1193 42.5481 2.47588
74 38.0836 41.2102 7.22958
74 38.6823 44.2835 1.02087
0 32.0583 -38.666 13.2641
74 35.8436 -25.1366 -9.35473
74 36.0679 -22.2345 -9.3687
74 33.0427 -21.9809 -9.4716
74 33.5224 -18.8555 -9.51571
74 36.4031 -19.1311 -6.33565
74 36.9674 -15.9274 -3.31048
74 37.7915 -9.91689 -6.88567
74 36.1416 -11.1106 -5.15034
74 37.9616 -6.73619 -6.90049
74 34.8098 -6.61825 -6.76301
0 35.3836 -7.18933 19.6016
74 35.0637 -3.42849 -6.48176
74 38.2813 -3.27864 -0.419696
74 35.0357 -3.54304 -0.290743
74 35.1756 -3.19513 2.90571
74 36.9298 -1.82547 4.49199
74 38.3316 -0.394216 -0.330054
74 35.4677 -0.388636 -0.298463
74 35.6957 2.72685 -0.35563
74 37.5086 4.07857 1.34877
74 40.8732 34.5019 4.39621
74 41.1276 37.7653 4.28571
74 39.5366 36.2491 5.93986
74 41.7011 40.8474 1.02664
74 40.2574 42.604 -0.378553
0 41.2121 46.3117 -12.0394
74 40.5204 45.7739 -0.384442
74 44.1921 51.3498 -0.229446
0 36.2505 -29.5606 3.78341
74 36.2112 -22.3808 -12.5773
0 36.8685 -23.2628 16.4459
74 36.3732 -19.3435 -9.43671
74 39.6021 -19.5438 -6.39776
74 36.9976 -16.085 -6.52206
74 39.1378 -11.737 -8.30891
74 38.6624 -14.6376 -4.98329
74 39.4837 -8.47982 -8.32901
74 38.8282 2.40512 -0.321477
74 40.3541 4.0691 1.36145
0 44.7799 34.7916 -16.7701
74 42.2605 32.9127 6.16004
74 44.3143 37.3817 1.2897
74 44.2544 37.4098 4.41848
74 46.1214 41.8626 6.05695
74 46.6313 44.8356 2.87924
74 46.9263 47.9097 3.07498
74 39.3284 -22.6271 -9.33672
74 40.0995 -16.5092 -6.55807
74 40.5824 -13.4932 -9.7133
74 42.2029 -12.1141 -8.05977
0 44.4645 17.315 -5.68892
74 46.8789 33.9088 4.57226
74 45.6569 35.7003 2.90686
74 45.534 35.7153 6.11379
0 46.8629 39.345 -18.3452
74 48.2347 43.3325 1.24232
74 47.9512 43.1962 4.52904
74 49.7984 47.6775 3.08496
74 48.5577 49.4383 1.43182
74 47.2571 51.1201 3.11806
0 42.8806 -27.0834 3.81029
0 42.8676 -27.0827 6.97558
0 44.9375 -22.5286 8.56581
74 43.2286 -16.8749 -9.28252
0 44.8392 -8.19546 16.4756
0 46.5216 -6.78614 30.7263
0 48.6436 26.4211 -12.0043
74 48.7738 35.4075 3.11283
0 49.9842 39.0112 -12.0015
74 49.2652 38.4001 -0.187867
74 50.6094 39.8294 4.57217
0 52.1327 43.5611 -29.403
74 51.1115 42.869 1.46894
0 52.4155 46.7114 -16.7412
74 51.4987 46.0463 1.59753
74 51.6156 48.8327 1.44805
0 51.2463 51.6055 6.99295
0 49.0904 -13.4212 8.58099
0 47.3163 -14.8257 16.4873
0 49.7607 -7.12615 8.58238
0 54.2878 33.7827 -32.5573
0 52.5007 32.3789 -21.4857
0 53.2234 38.6712 -34.1454
74 55.483 40.7681 6.19821
74 55.8244 43.934 3.26892
74 54.2674 45.4918 1.54215
0 50.227 -32.6415 8.58991
0 55.1757 14.5756 27.592
0 55.2737 28.8983 -11.9774
0 57.3568 33.4517 -13.5525
0 55.5827 32.0472 -5.64617
0 56.0226 35.1892 -30.9678
0 57.705 36.5985 -16.7171
0 55.9571 35.1927 -15.1413
0 57.6657 36.6006 -7.22122
0 57.9747 39.7495 -0.889958
74 61.4164 62.507 -35.036
74 61.5349 65.4297 -38.2276
0 53.2893 -18.6442 13.3475
0 56.0164 -7.79436 18.1044
0 55.596 3.3906 22.8482
0 57.6528 7.94536 27.6037
0 58.0927 11.0873 2.28216
0 58.4541 14.2335 -4.04771
0 58.7302 31.7121 -5.63308
0 60.8394 36.2641 -13.5387
0 61.1484 39.413 -7.20743
0 61.8972 45.7039 -26.1978
0 62.5675 51.9989 -26.1964
0 61.1417 53.7413 -21.4546
74 64.5373 62.0258 -38.2521
74 62.6802 60.6375 -36.6506
74 63.0661 63.7125 -42.7176
74 64.8392 65.2204 -38.2803
74 63.1748 63.8574 -36.6953
74 65.144 68.2209 -44.5764
74 65.0759 68.2304 -41.3823
74 61.6718 65.5467 -41.0456
0 64.8612 74.0344 -13.5304
0 59.8668 12.4918 -5.62415
0 63.3428 29.6325 -19.8576
0 63.8219 32.7724 -54.675
0 63.691 32.7793 -23.0222
0 61.9431 31.3735 -21.4464
0 61.917 31.3749 -15.1158
0 61.9039 31.3756 -11.9506
0 63.6255 32.7828 -7.19573
0 63.6124 32.7835 -4.03045
0 63.5601 32.7863 8.63069
0 62.3961 34.5147 -49.9333
0 64.1309 35.9213 -48.3437
0 64.0785 35.9241 -35.6826
0 64.0654 35.9248 -32.5173
0 62.2128 34.5245 -5.61929
0 64.3351 39.0758 -16.6902
0 64.6834 42.2226 -19.8548
0 64.6703 42.2233 -16.6895
0 62.9093 40.8181 -11.9485
0 64.9792 45.3722 -10.3582
74 66.2812 63.4553 -39.7448
74 64.906 65.1234 -44.1672
74 65.4297 68.5123 -47.2241
0 66.5567 75.443 -2.44497
0 64.427 10.4149 -7.1875
0 63.0143 12.1566 -5.61106
0 64.0328 21.5985 -8.77426
0 64.4727 24.7405 -34.0958
0 64.7031 27.8936 -8.77287
0 66.4379 29.3001 -7.18333
0 66.8123 32.4456 -16.6785
0 65.3603 34.1893 -5.6062
0 65.7871 37.332 -27.7625
0 67.5088 38.7392 -23.0077
0 67.4957 38.7399 -19.8424
0 65.7478 37.3341 -18.2666
0 67.4826 38.7406 -16.6771
0 65.7347 37.3348 -15.1014
0 67.4695 38.7413 -13.5118
0 67.4564 38.742 -10.3465
0 66.0961 40.4809 -21.4312
0 67.8308 41.8874 -19.8417
0 66.083 40.4816 -18.2659
0 66.0699 40.4823 -15.1007
0 69.1714 54.4776 -19.8389
0 67.9227 13.2266 -10.339
0 66.0832 11.8257 13.3937
0 68.9543 22.6678 -16.6675
0 67.8244 27.5598 -2.42921
0 68.225 30.7039 -18.2549
0 68.9346 36.9968 -27.7494
0 68.8953 36.9989 -18.2535
0 69.2436 40.1458 -21.4181
0 69.2305 40.1465 -18.2529
0 69.5263 43.2961 -8.7563
0 69.5132 43.2968 -5.59102
0 72.3975 54.1382 -38.8175
0 71.0504 27.2205 -21.4078
0 72.7721 28.6277 -16.653
0 73.1335 31.7739 -22.9829
0 73.1073 31.7753 -16.6523
0 71.3594 30.3694 -15.0766
0 73.0811 31.7767 -10.3217
0 73.4555 34.9221 -19.8169
0 71.6684 33.5183 -8.74529
0 72.069 36.6624 -24.571
0 71.9904 36.6666 -5.57931
0 72.4434 39.8078 -34.0662
0 74.1389 41.2165 -22.9808
0 74.1127 41.2178 -16.6502
0 72.2732 39.8169 7.08252
0 74.8354 47.5101 -29.31
0 74.7175 47.5164 -0.822408
0 74.5528 15.7039 -10.3121
0 74.888 18.8514 -10.3114
0 74.4414 30.0377 0.762958
0 74.8158 33.1832 -8.7322
0 76.5113 34.5918 2.35319
0 76.925 37.7352 -16.6378
0 75.1772 36.3293 -15.0621
0 76.8858 37.7373 -7.14197
0 75.8868 42.6223 -24.5565
0 75.8737 42.623 -21.3913
0 77.6084 44.0295 -19.8017
0 77.9567 47.1764 -22.9663
0 76.2088 45.7705 -21.3906
0 76.8922 52.0649 -24.5545
0 75.9132 13.965 0.772575
0 77.3192 26.5516 -15.0511
0 79.4153 31.1043 -19.7914
0 80.0856 37.3993 -19.79
0 78.7122 39.1389 -27.7094
0 78.6467 39.1424 -11.883
0 80.8083 43.6916 -32.4498
0 80.7166 43.6965 -10.2928
0 81.5048 49.9853 -38.7789
0 81.4917 49.986 -35.6137
0 81.4393 49.9887 -22.9525
0 82.2146 27.6223 -16.6137
0 80.828 29.3626 -21.3678
0 81.2025 32.508 -30.863
0 81.1632 32.5101 -21.3672
0 83.2331 37.0642 -19.7769
0 81.4329 35.6611 -5.54003
0 81.8859 38.8024 -34.0269
0 82.1948 41.9513 -27.6956
0 82.1163 41.9555 -8.70393
0 86.0716 33.5801 -26.0951
0 86.0454 33.5815 -19.7645
0 84.6589 35.3218 -24.5186
0 87.064 43.0234 -22.9277
0 85.2637 41.6203 -8.69084
0 85.5596 44.7699 0.805713
0 88.1613 23.8052 -13.4229
0 87.1754 28.6895 -34.0028
0 89.2322 33.2443 -29.2473
0 89.5412 36.3932 -22.916
0 89.4888 36.396 -10.2549
0 88.8118 44.4292 -24.5035
0 90.8358 63.3137 -27.6646
0 90.9998 20.3211 -19.7411
0 91.3611 23.4672 -26.071
0 91.2826 23.4714 -7.07928
0 91.6701 26.6162 -19.7397
0 89.9092 25.211 -14.9987
0 91.9791 29.7651 -13.4085
74 93.2547 36.7326 25.331
0 91.6373 40.9459 -27.6564
0 91.5587 40.95 -8.66465
0 91.9986 44.092 -33.9862
74 98.6561 87.1077 28.5314
0 95.2051 29.4258 -32.3871
74 97.0277 37.9496 -7.55302
0 94.7586 40.6121 -21.3127
74 96.0169 42.7023 -12.1635
0 95.8164 50.0519 -33.9717
0 97.3733 19.6466 -38.7066
0 95.869 21.3932 -14.9732
74 99.1471 31.7031 -7.83784
74 98.3772 39.4257 -12.1848
74 100.342 40.6873 -10.747
74 100.642 44.0105 -13.7965
74 98.8764 42.5932 -12.231
74 102.333 31.2031 -11.0578
74 102.815 34.2814 -7.80509
74 100.238 37.6748 -7.72819
74 102.187 42.0731 -9.19626
74 100.919 43.7634 -10.7693
74 102.673 45.2263 -9.19121
74 105.607 30.8985 -7.89889
74 106.022 34.0465 -7.92736
74 104.392 35.7189 -9.46224
74 104.983 38.8603 -9.37212
0 106.297 44.1594 -26.0138
74 105.043 41.7406 -9.27671
74 106.096 47.7733 -9.25013
74 105.501 44.9608 -9.16028
0 107.072 21.7929 -19.675
74 108.433 30.6249 -7.90016
74 108.939 33.7307 -8.03048
74 106.213 36.9848 -7.87737
74 109.394 36.9094 -8.00664
74 107.796 38.5433 -9.50408
74 109.534 39.7802 -7.89733
74 106.805 43.0388 -7.66878
74 108.664 44.3377 -6.04683
74 108.418 44.5046 -9.25425
74 110.732 49.1428 -10.7652
74 107.692 49.2769 -7.60862
74 109.289 33.5417 -4.83675
74 112.229 36.5463 -8.10242
74 109.598 36.7369 -4.74343
74 112.697 39.6836 -8.00224
74 111.902 44.2038 -6.13654
74 113.329 45.6819 -10.721
74 111.579 44.3625 -9.34162
74 113.107 31.7097 -6.35692
74 114.931 33.0482 -4.82337
74 113.622 34.7878 -6.52928
74 114.037 37.8413 -6.48602
74 114.483 40.9059 -6.30825
74 114.722 43.9029 -9.3499
74 115.142 47.1307 -9.12624
74 117.223 37.4701 -6.54985
74 115.538 36.1643 -4.94782
74 115.683 35.9674 -1.73828
0 116.869 38.2619 -40.2128
74 117.923 43.5929 -9.43157
74 117.508 40.7364 -9.56549
74 116.263 42.1608 -4.67573
74 119.636 44.9719 -7.6917
0 118.998 28.4849 -37.0365
74 121.655 35.4564 -7.98962
74 118.68 35.6399 -4.93551
74 121.583 35.4594 -4.82751
74 120.68 40.2383 -9.49308
74 119.476 41.8468 -4.70371
74 124.895 35.0617 -7.87564
74 123.912 39.7999 -9.42478
0 131.799 44.6264 -22.743
74 131.865 21.5046 -71.0884
0 135.709 21.9255 -13.2259
0 149.934 18.8314 -68.5598
74 155.62 52.2819 -41.0134
0 161.499 22.3773 -79.5914
74 160.912 27.8454 -39.4033
74 166.325 13.8644 -77.3703
0 166.046 20.3011 -77.9895
74 165.488 22.7807 -56.5654
74 174.205 21.6333 -99.4879
0 183.623 20.0264 -101.657
0 182.197 21.7687 -96.915
0 191.705 20.7598 -112.702
0 191.652 20.7626 -100.041
74 192.023 -8.49607 -55.1933
0 201.482 22.9019 -112.662
0 204.63 22.5668 -112.649
74 209.72 17.9549 -119.803
74 210.046 21.0054 -122.851
74 206.497 18.4056 -122.795
74 208.391 22.6343 -121.445
74 215.604 20.4195 -127.781
74 216.375 34.9179 -135.558
