ITEM: TIME
40.0
ITEM: TIMESTEP
0
ITEM: NUMBER OF ATOMS
400
ITEM: BOX BOUNDS pp pp pp
-237.39 237.39
-237.39 237.39
-237.39 237.39
ITEM: ATOMS type x y z
74 49.2597 53.1082 25.8052
74 23.7617 34.85 2.23819
0 -11.2293 13.2339 3.27029
74 -5.65235 23.2341 -12.0158
74 -4.50507 25.793 -15.3444
74 18.8855 21.8324 -12.8995
0 43.9502 17.9845 20.1997
0 47.6502 21.574 21.1884
0 -0.181271 -0.75228 0.0365947
74 18.9308 20.0358 -16.8183
0 7.56297 -0.390215 0.14201
74 3.02058 3.17537 -17.2741
0 35.6057 4.69319 13.546
0 41.9849 4.36852 21.2528
0 48.3769 8.63572 12.2415
74 59.1682 3.06322 40.5396
0 21.9031 -0.769576 -6.54353
74 37.35 5.51946 -4.26694
0 58.6982 7.58785 17.9547
0 62.3346 14.3776 12.6307
0 39.0767 30.2672 -44.1524
0 63.4957 20.073 2.80909
0 68.6246 21.1491 2.50932
0 69.7475 26.1486 -2.10972
0 80.0942 21.2047 15.1189
74 66.8418 -17.4058 73.3635
74 36.0164 1.20433 -4.92067
74 38.6809 2.83554 -5.72718
74 40.9551 3.93917 -1.20741
0 62.7042 3.66449 22.274
74 70.4032 0.499043 38.5751
0 44.3075 28.839 -43.342
0 66.2514 17.5504 -0.878184
74 38.4937 36.3202 -62.9743
74 39.948 34.2515 -63.958
0 72.6305 17.2257 6.82857
74 41.2309 36.6547 -67.6057
74 40.6422 38.0131 -63.5945
0 72.2101 35.7309 -25.8455
0 1.91051 -13.0039 -16.5117
74 34.7875 -0.766223 -6.45042
74 37.391 0.959855 -7.23875
74 41.154 -0.305804 -4.06317
74 39.6788 0.00411952 -1.68845
74 43.7759 1.53093 -4.78876
74 42.4796 1.43878 -2.35713
0 57.6519 3.98005 12.1685
0 60.2036 6.46613 6.26094
0 69.0961 7.93169 13.2627
0 66.4553 12.5418 1.34213
0 74.1867 8.31198 18.1656
74 42.3512 35.5907 -64.8562
0 72.7071 18.6174 -3.57668
0 73.9956 17.9125 -0.772769
0 96.6802 30.8244 -0.804689
0 19.7722 -8.68104 -12.9133
74 31.3728 -6.58641 -6.32492
74 32.5327 -4.23083 -9.88456
74 36.1965 -3.3305 -7.83427
74 38.7398 -1.59688 -8.68133
74 41.3073 0.150631 -9.47237
74 39.9919 -2.08043 -5.72981
74 42.5552 -0.384283 -6.43405
74 46.407 0.854866 -4.34611
0 62.8573 6.4479 1.46351
0 61.5304 6.45701 3.86222
0 65.3324 7.54228 5.96116
0 67.9478 6.82819 6.36635
0 38.2472 26.2426 -64.4363
0 73.0001 6.51264 16.4718
0 72.9747 10.4087 4.95642
0 79.4175 6.88382 18.976
0 69.007 15.0279 -4.56546
0 76.7384 10.7981 12.258
74 31.8167 -10.7186 -8.9861
74 35.346 -9.82727 -7.0577
74 37.8438 -5.73554 -9.09522
74 40.0295 -3.9511 -9.71138
74 42.6286 -4.51042 -9.17588
74 43.8773 -2.71548 -7.55656
74 45.1514 -1.02933 -5.87471
74 45.1832 1.86688 -12.5625
74 46.4448 -0.965876 -8.29008
74 47.7584 1.38875 -11.9721
74 50.1477 2.83131 -12.4863
0 60.6115 -3.55112 10.7016
74 39.3472 12.8674 -42.3344
0 64.3498 0.734307 6.48773
0 64.3115 0.0384534 11.6904
0 61.709 5.34441 -5.43287
0 62.9592 3.94359 2.57366
0 62.8955 7.14375 -3.73912
0 70.6269 2.91395 13.0843
0 68.0244 8.2199 -4.03889
0 67.9861 7.52405 1.16373
0 70.5632 6.11411 6.77155
0 66.6084 15.3252 -19.4684
0 78.1672 8.28464 10.9694
0 83.3598 6.16062 16.9824
0 106.427 -0.12847 54.8272
74 70.0611 29.5517 -45.2792
74 29.552 -14.4999 -12.3275
74 30.6809 -12.6768 -10.5901
74 33.2962 -13.2276 -10.2035
74 35.3494 -9.34423 -12.3676
74 37.9873 -9.82406 -11.6847
74 36.5767 -7.56804 -10.7013
74 40.4735 -8.11602 -12.5408
74 39.1457 -5.80557 -11.5119
74 41.7814 -6.35948 -10.9635
74 43.9572 -4.54376 -11.5539
74 46.5415 -5.0975 -10.9851
0 53.1477 -7.53011 2.41122
74 49.1756 -1.14598 -13.0527
0 59.4632 -4.65461 3.8052
0 60.688 -2.15942 0.296322
0 56.7204 2.4598 -9.22556
0 58.0089 1.75483 -6.42165
0 59.2975 1.04987 -3.61774
0 61.9129 0.335783 -3.21255
0 61.8746 -0.360071 1.99007
0 63.1378 2.83098 -6.72143
0 67.0035 0.716077 1.6903
0 65.6512 4.62121 -7.42639
0 64.3244 4.63033 -5.02768
0 69.4149 5.01062 -0.124829
0 74.5055 5.39091 4.77802
0 77.1209 4.67683 5.18321
0 77.0826 3.98098 10.3858
0 79.698 3.2669 10.791
0 83.5637 1.15199 19.2027
0 59.9491 32.3466 -63.9417
74 73.838 29.01 -47.3617
74 57.6109 -49.4175 79.8061
74 32.2156 -15.201 -11.8737
74 34.749 -15.8358 -11.5063
74 35.7416 -13.4061 -14.957
74 39.4052 -12.3518 -12.9035
0 74.0961 -30.2185 62.1196
74 42.9968 -8.76896 -11.9837
74 46.8761 -6.99064 -15.0872
74 47.9967 -5.14718 -13.4228
74 50.5812 -0.549318 -20.8035
74 49.2292 -0.515528 -18.3986
74 51.8556 1.05123 -19.0592
0 63.3034 -2.8735 0.701513
0 67.1691 -4.9884 9.11324
0 68.394 -2.4932 5.60436
0 64.5029 3.51772 -14.3228
0 65.7532 2.1169 -6.31624
0 67.0417 1.41193 -3.51233
0 73.4845 -2.11291 10.5072
0 64.4392 6.71788 -20.6355
0 70.8437 2.49719 -1.41339
0 81.1522 -3.14255 21.0179
0 88.9219 -6.6765 32.6387
0 90.2105 -7.38147 35.4426
0 78.5497 2.1634 3.89465
0 73.3317 8.18344 -13.6338
0 93.9105 -3.7919 36.4314
0 66.6978 21.3088 -46.5916
0 62.7302 25.928 -56.1135
74 27.0114 -19.9422 -19.8223
74 33.3997 -17.4752 -13.2069
74 34.4388 -12.8774 -17.7466
74 37.2864 -15.8425 -16.3552
74 38.3129 -14.147 -14.5732
74 40.8631 -14.8368 -14.1508
74 43.2303 -10.6839 -16.0414
74 44.5382 -11.1607 -13.136
74 47.0957 -8.75894 -19.1037
74 45.7375 -8.82361 -16.7549
74 48.2492 -6.36201 -22.7122
74 48.1002 -4.61496 -18.7377
74 49.3544 -2.32936 -22.4233
0 63.6093 -10.3864 4.03199
74 53.2796 -2.83306 -24.3146
74 51.9983 -2.78721 -21.8775
74 54.6244 -3.32535 -21.4083
0 62.2571 -6.4813 -5.0847
0 59.6163 -1.8712 -17.0053
0 62.0914 -0.776824 -12.5076
0 71.1496 -5.01575 1.91709
0 72.4382 -5.72071 4.72099
0 76.2656 -8.53147 18.3353
74 92.8354 -17.2947 52.1033
0 67.2203 0.299324 -12.8074
0 65.8934 0.308438 -10.4087
0 74.9134 -4.62634 9.21865
0 81.3562 -8.15118 23.2382
0 74.8497 -1.42617 2.90587
0 80.0422 -3.55019 8.91887
0 81.3308 -4.25516 11.7228
0 81.2288 -1.75084 10.6126
0 70.7929 10.2892 -24.4442
0 73.3063 12.0795 -25.1492
0 17.0919 -37.3137 -2.80055
0 18.2148 -32.3142 -7.41958
74 39.858 -18.9037 -14.4144
74 41.0197 -16.5643 -18.1187
74 43.6111 -14.7266 -18.7939
74 42.1315 -12.5095 -17.7424
74 44.7363 -12.9252 -17.1204
74 47.3029 -10.4798 -23.0976
74 45.784 -8.27076 -22.0149
74 49.7784 -8.80516 -23.8665
74 50.7742 -4.6222 -23.507
0 55.9799 -8.66094 -11.6813
74 51.9306 -2.31191 -27.2034
74 57.1256 -4.29938 -21.0147
74 58.4666 -4.22922 -23.409
0 57.0774 0.234588 -27.8157
0 66.1356 -4.00433 -13.391
0 68.6491 -2.2141 -14.096
0 69.8994 -3.61492 -6.08945
0 75.0536 -6.4348 5.12618
0 76.3422 -7.13976 7.93009
0 74.9899 -3.23463 -1.1866
0 78.8939 -4.65368 2.0225
0 90.491 -10.9984 27.2577
0 91.7795 -11.7034 30.0616
0 90.4527 -11.6942 32.4603
0 81.4073 -2.86345 1.31753
0 82.6576 -4.26427 9.32406
74 78.0042 -48.2833 76.4152
74 43.844 -16.5379 -22.9123
74 42.4357 -16.4986 -20.5013
74 45.0935 -14.1184 -26.4845
74 44.9948 -14.714 -21.2043
74 46.2296 -12.2861 -24.7651
0 80.7686 -29.5683 44.9234
74 49.6721 -8.26614 -29.1342
74 50.9998 -8.72977 -26.2387
74 54.7049 -7.80678 -24.1929
74 55.9048 -6.03606 -22.5997
0 72.8461 -15.738 9.16162
74 57.2012 -5.99912 -25.0539
0 62.4739 -6.89806 -19.5824
74 59.6442 -4.10273 -25.8291
0 81.6367 -11.7681 15.0533
0 81.573 -8.56793 8.74047
0 84.1501 -9.97786 14.3483
0 80.2207 -4.66279 -0.376216
0 89.2407 -9.59757 19.2511
0 90.5292 -10.3025 22.055
0 91.8178 -11.0075 24.859
0 16.1475 -43.4259 -7.47661
0 28.4853 -25.5701 -24.7372
74 77.1117 -53.081 81.1128
74 79.5263 -50.6725 75.0356
74 78.3841 -50.7259 77.6282
74 44.1676 -18.2488 -27.0749
74 47.6459 -14.8838 -25.9637
0 53.8744 -20.4684 -6.5357
74 48.9332 -14.7268 -28.338
74 49.0083 -15.2771 -22.9865
74 52.3801 -11.3714 -27.4054
0 56.3241 -15.478 -13.5535
74 53.5665 -9.60062 -25.7982
74 55.9886 -7.81736 -26.6507
0 98.6939 -28.4456 54.8345
74 64.8518 -5.6461 -25.1016
0 79.2381 -11.4708 0.150349
0 90.7714 -14.6153 19.0727
0 81.6495 -7.17622 -1.66478
0 88.1306 -10.0052 7.15214
0 91.958 -12.816 20.7665
0 99.4729 -3.54926 7.13618
74 65.9039 17.7046 -69.5316
0 75.2049 -62.3579 91.0494
0 77.8203 -63.0719 91.4546
74 77.0698 -54.9113 77.0644
0 34.9792 -23.8072 -32.6383
74 83.2283 -49.772 77.089
74 83.1345 -45.9067 65.6739
74 81.7392 -42.8292 61.5363
74 84.365 -43.3607 61.9892
74 46.7167 -18.9536 -26.5064
74 47.739 -16.4741 -30.0783
74 50.2565 -17.3127 -29.6104
74 51.4607 -15.5239 -27.9199
74 55.0366 -12.073 -27.0018
74 56.2833 -11.9447 -29.4157
74 58.5193 -10.4468 -30.284
74 60.016 -10.8881 -27.4128
74 62.5833 -11.6314 -27.0867
0 62.6907 -7.31481 -34.0801
74 63.7867 -9.78671 -25.5094
0 71.7106 -12.2496 -14.4528
0 92.2894 -24.2249 35.6124
0 100.021 -28.4547 52.4358
74 66.0914 -8.23275 -26.437
74 67.5916 -8.75493 -23.6118
0 76.7629 -12.5651 -4.34731
0 92.264 -20.3289 24.097
0 97.4182 -23.1488 35.3126
74 68.6566 -6.29313 -27.1389
0 96.0023 -16.0435 19.8831
0 89.4957 -9.31847 -0.449203
0 94.5863 -8.93818 4.45365
0 91.9072 -5.02393 -2.26433
0 104.793 -12.0736 25.7747
0 23.9683 -41.6721 -17.7764
74 82.1977 -50.047 65.1375
0 57.8932 -19.7999 -18.9345
74 55.3383 -16.0119 -29.9526
74 57.9562 -16.7777 -29.5403
0 95.1978 -37.0438 56.0661
74 61.3954 -13.4353 -28.697
74 63.9625 -14.1895 -28.3346
74 65.1659 -12.4211 -26.7643
74 66.2247 -9.98995 -30.3468
74 67.6307 -10.6704 -27.599
74 68.8339 -8.0843 -31.0176
0 93.5908 -20.338 21.6982
0 97.4565 -22.4529 30.11
74 80.7983 -10.4845 -17.3695
0 96.1042 -18.5478 20.9933
0 106.349 -20.9874 37.1118
74 85.6069 -7.43865 -13.5727
74 86.5127 -5.1334 -17.147
0 111.414 -16.7111 30.4992
0 90.2858 -38.5367 41.8681
74 60.2638 -15.3183 -30.3004
74 62.8901 -16.0149 -29.937
74 65.5503 -16.6507 -29.4595
74 67.9592 -14.7693 -30.4194
0 89.8654 -20.0316 9.19405
0 97.5967 -24.2614 26.0175
74 82.1884 -10.8628 -19.6382
0 93.7056 -18.2505 6.09037
0 100.148 -21.7753 20.1099
0 101.437 -22.4803 22.9138
74 84.8825 -11.1559 -19.1032
74 83.3611 -11.0641 -16.7898
74 87.8984 -5.38185 -19.5647
74 91.9535 -5.92968 -21.4069
74 90.6113 -3.88152 -20.1346
74 111.393 -14.7648 24.7619
74 112.429 -12.3694 21.152
74 115.021 -13.1778 21.7982
0 28.1145 -47.4039 -17.5497
74 95.8351 -62.6267 89.4103
0 93.1943 -51.3556 62.3218
74 66.9043 -16.8305 -31.8786
0 101.577 -24.2887 18.8213
74 83.7253 -12.8928 -20.931
74 86.1851 -13.7819 -20.3742
74 88.742 -11.9501 -21.1762
74 87.0677 -9.54821 -19.669
74 90.8817 -10.1573 -21.9027
74 89.5174 -7.83846 -20.6296
74 112.913 -18.8721 19.2179
74 93.2088 -3.75332 -24.9267
74 113.961 -14.8287 19.9532
74 116.552 -15.5564 20.3513
74 117.761 -16.3979 23.2174
74 92.3339 -70.0572 92.5882
74 87.3206 -11.5844 -23.9421
74 89.7077 -9.67388 -24.4406
74 92.4231 -12.7278 -23.1431
74 115.363 -17.4952 18.7831
74 119.155 -18.3676 21.773
74 35.8793 -55.661 -6.29938
74 88.8506 -14.0515 -25.0872
0 99.4209 -28.3042 0.936133
0 88.2825 -39.7687 3.17241
0 102.202 -34.7227 8.76426
74 153.516 -18.8987 36.4222
74 152.493 -23.0419 35.8698
74 153.518 -20.5924 32.2683
74 139.369 -38.1138 43.3412
74 97.1572 -0.993527 -75.8796
0 128.075 -38.2466 21.0011
74 138.289 -42.3733 42.7032
0 147.455 -43.5334 41.1391
74 149.124 -43.1153 30.3545
0 158.849 -31.7897 19.2024
0 160.137 -32.4947 22.0064
74 148.933 -44.3583 28.0099
0 156.73 -48.1891 41.0661
74 93.6131 -78.4495 20.3921
74 147.865 -48.136 30.1845
74 153.996 -48.1546 28.749
74 152.694 -46.3315 30.311
0 159.384 -48.2073 36.2686
0 151.525 -37.5772 6.81963
0 160.52 -38.6159 14.9316
0 166.937 -38.2448 17.4357
0 165.022 -59.6527 41.5197
0 163.313 -40.4426 6.04168
0 158.656 -54.7362 17.0949
0 167.549 -53.2706 24.0967
0 168.774 -50.7754 20.5878
0 156.347 -61.5351 20.0202
0 158.898 -59.049 14.1126
0 161.883 -70.4762 24.161
0 159.638 -80.4752 33.3991
74 173.403 -82.5912 23.8994
0 175.216 -73.7675 6.48662
