ITEM: TIME
40.0
ITEM: TIMESTEP
0
ITEM: NUMBER OF ATOMS
488
ITEM: BOX BOUNDS pp pp pp
-237.39 237.39
-237.39 237.39
-237.39 237.39
ITEM: ATOMS type x y z
0 0.245468 -0.568425 -1.46866
74 5.03847 5.40531 15.5119
0 13.8628 -0.661166 0.0883826
74 21.761 3.39134 -7.15379
0 21.8009 3.13953 3.2839
74 31.6524 11.0526 -0.663864
74 34.0192 13.3547 -3.43952
74 40.7507 25.3355 4.33268
0 22.846 1.77456 10.1499
0 28.6264 4.13557 3.17261
0 27.8749 2.28345 8.02632
74 45.9094 22.2846 0.15793
0 30.9007 -12.3415 -4.82704
0 37.76 -9.26063 -6.71793
0 37.7937 -7.17581 -8.49754
74 45.4527 -20.0362 -1.51401
0 55.0759 0.0131569 12.92
0 61.6078 4.22627 1.089
74 46.1238 -24.3345 -1.0461
74 75.7307 10.5007 6.20158
74 81.711 4.20702 -16.2251
0 104.372 34.8078 -5.90747
0 109.506 43.709 6.02522
74 69.2523 -17.252 -6.24115
74 110.685 24.9614 -42.0855
0 105.811 36.4802 7.33944
0 114.535 44.2178 3.90163
0 118.59 52.3991 10.7479
0 80.4087 -9.0517 -0.0345029
0 96.0922 8.02121 -10.702
0 97.9226 10.5932 -10.4693
0 105.672 26.0032 -4.93724
74 116.307 26.1116 -38.9306
0 108.909 28.1627 10.322
0 114.723 32.6085 1.56507
0 118.06 41.0225 11.4855
0 105.932 20.7013 8.56209
0 109.593 25.8452 9.02748
0 112.536 31.2218 12.567
0 124.236 46.4209 10.8891
74 122.99 48.9505 24.941
74 124.992 51.152 27.5759
74 124.391 53.2246 30.5834
0 99.156 -2.38111 -5.93988
0 106.511 9.99153 -6.78869
0 103.64 10.9223 5.50771
0 108.702 13.516 1.60451
0 111.251 15.8553 -1.23689
0 111.645 18.8927 5.14401
0 120.079 31.9852 9.38159
74 120.538 42.6811 30.4644
74 126.579 51.6753 29.6675
74 128.329 52.1753 31.7177
0 96.7919 -18.4675 -24.8302
0 100.273 2.56134 16.762
0 102.855 6.98541 12.141
0 110.788 8.64831 -4.05857
0 109.353 9.11371 2.08963
0 111.183 11.6857 2.32232
0 113.731 14.0249 -0.519079
0 114.126 17.0623 5.86182
0 115.99 21.7191 4.31491
0 116.779 27.7938 17.0767
74 122.267 36.1058 23.2867
74 124.885 43.2813 31.417
0 109.214 -1.36333 -10.1871
0 116.212 12.1946 0.198734
0 117.719 18.0366 9.88643
0 114.487 18.0148 14.0223
0 120.985 20.1431 3.97093
0 118.226 1.01941 -21.3002
0 113.202 2.64832 0.218455
0 113.953 4.50043 -4.63525
0 111.8 5.19853 4.58705
0 121.669 17.8256 2.67643
0 118.08 18.9891 18.0469
0 127.127 23.4567 5.15414
0 127.16 25.5415 3.37453
0 128.957 26.0286 5.38683
0 116.039 -0.367298 -10.2983
0 117.836 0.119848 -8.28603
0 114.604 0.0981028 -4.15014
0 120.384 2.45911 -11.1274
0 125.624 19.7525 14.8616
0 134.809 34.6971 14.2454
0 113.424 -6.87618 -3.89772
0 117.802 -1.96497 -6.50642
0 118.163 -1.01242 1.65408
0 119.633 0.606993 -6.27373
0 121.463 3.17895 -6.04103
0 127.71 14.8847 9.19847
0 128.104 17.9221 15.5794
0 111.383 -26.2326 -32.243
0 112.89 -20.3906 -22.5553
0 115.799 -17.0988 -17.2362
0 114.364 -16.6334 -11.088
0 111.492 -15.7026 1.20841
0 121.936 -15.923 -35.4481
0 117.663 -12.442 -18.7831
0 118.776 -9.63735 -15.4763
0 123.872 -4.95884 -21.1591
0 118.847 -3.32993 0.359589
0 122.113 -1.22337 -5.55591
0 127.927 3.22244 -14.3128
0 129.006 3.94229 -9.22641
0 130.224 15.1392 8.13667
0 127.353 16.07 20.4331
0 121.941 -13.7852 -16.053
0 132.633 7.00139 -6.98141
0 132.276 8.18664 4.2532
0 121.155 -17.7222 -9.41967
0 123.343 -16.3354 -20.4216
0 122.986 -15.1502 -9.18697
0 130.269 -9.08497 -25.8717
0 131.348 -8.36513 -20.7853
0 130.089 6.79993 15.2551
0 138.846 16.6224 10.0377
0 121.445 -23.077 -17.0951
0 122.557 -20.2724 -13.7883
0 130.563 -12.3021 -14.152
74 108.366 -54.2247 -34.8284
74 111.265 -50.0047 -34.4788
0 117.25 -41.7354 -36.218
0 119.836 -35.1735 -21.4439
0 140.722 -5.02983 -23.738
0 130.672 -1.77203 19.2994
0 146.502 -2.66883 -30.7153
0 149.445 2.70779 -27.1758
0 163.231 13.0391 -34.5168
0 133.232 -25.7417 -15.7707
0 132.086 -30.6312 -17.2979
0 131.368 -30.3985 -14.2238
74 137.916 -21.222 -9.36805
0 141.204 -19.8562 -14.3548
74 140.275 -20.9014 -10.8695
0 145.582 -14.945 -16.9635
0 154.662 -8.39263 -31.6359
74 120.522 -53.0237 -9.50495
74 125.999 -45.39 -8.80888
74 127.16 -42.6376 -5.74448
74 141.097 -23.2226 -12.0155
74 142.84 -22.7923 -10.0755
74 142.227 -22.1879 -6.94263
74 119.174 -57.9463 -10.8182
74 122.903 -54.8475 -8.65522
74 122.32 -50.8547 -9.13532
74 124.786 -50.2842 -10.3614
74 128.418 -45.3345 -9.92352
74 127.803 -45.0737 -6.78057
74 129.399 -40.4293 -8.31582
74 131.31 -40.1303 -6.40947
74 133.623 -37.686 -9.16678
74 130.601 -37.8967 -4.94813
74 132.982 -37.4277 -6.37373
74 134.693 -34.8559 -5.92837
0 139.562 -34.0375 -16.9241
0 143.94 -29.1263 -19.5328
0 141.426 -29.3807 -18.471
74 139.016 -27.7255 -10.1638
74 143.555 -25.124 -11.1998
74 144.703 -20.2933 -9.71651
74 144.02 -20.0973 -6.63081
74 146.557 -17.758 -9.31748
74 109.612 -78.2292 -14.8023
74 121.74 -61.6475 -8.17483
74 123.496 -59.2923 -8.18131
74 121.051 -59.2734 -7.04292
74 125.349 -54.6339 -9.731
74 127.315 -52.1676 -9.59771
74 129.149 -49.6946 -9.28932
74 126.763 -51.852 -6.53826
74 131.114 -49.1352 -7.42239
74 130.25 -44.9112 -8.00623
74 132.614 -42.6838 -10.8219
74 134.464 -42.123 -8.87164
74 136.265 -39.4928 -8.53429
74 137.997 -36.745 -8.07337
74 135.525 -39.1753 -5.54438
74 141.069 -34.6971 -14.0845
74 140.39 -34.3973 -10.9109
74 137.245 -36.5474 -5.26856
74 136.505 -36.39 -2.20747
74 142.168 -31.867 -10.7375
74 139.715 -34.059 -7.87476
74 141.473 -31.5126 -7.66123
74 147.7 -26.2273 -8.39406
74 145.259 -26.4651 -7.34686
0 151.912 -23.2408 -18.1169
74 149.541 -23.6337 -8.19567
74 147.057 -23.8748 -7.20023
74 111.758 -79.6314 -11.089
74 113.5 -78.9831 -9.11602
74 117.652 -74.3488 -11.7856
74 119.665 -66.3519 -6.75165
74 128.401 -56.8555 -12.0634
74 125.968 -59.0173 -9.172
74 127.939 -54.5252 -10.8311
74 129.746 -54.0004 -8.89647
0 126.72 -51.9882 2.62176
74 131.672 -51.4674 -8.72525
74 133.591 -48.9034 -8.51758
74 137.783 -44.0864 -11.0055
74 135.443 -46.2941 -8.21609
74 139.651 -43.5038 -9.10402
74 137.014 -41.7857 -9.7893
74 142.02 -41.0538 -11.7499
74 138.827 -41.2049 -7.8094
0 146.353 -35.1263 -15.2558
74 143.683 -36.4343 -13.3322
74 142.955 -36.1009 -10.1874
74 144.609 -33.7603 -10.0174
74 143.909 -33.3717 -6.86469
74 145.877 -30.8905 -6.77265
74 150.203 -26.0025 -9.35479
74 152.155 -23.4366 -9.30919
74 113.831 -83.125 -8.5243
74 115.933 -80.7913 -8.19161
74 118.622 -78.5631 -11.1927
74 115.227 -76.7452 -8.91065
74 121.533 -76.27 -16.8206
74 121.012 -76.1972 -13.9987
74 119.425 -75.6675 -7.85212
74 122.606 -73.4761 -13.6349
74 119.956 -71.8471 -14.2487
74 122.823 -69.7765 -20.2767
74 122.832 -70.5315 -7.37441
74 120.257 -68.7884 -7.82267
74 125.133 -66.2496 -11.8742
74 122.151 -68.1953 -5.94778
74 126.961 -65.5991 -9.91116
74 124.535 -65.8359 -8.78867
74 123.994 -65.5141 -5.628
74 129.572 -63.4073 -12.8463
74 126.513 -63.2881 -8.61326
74 129.078 -59.1265 -13.3639
74 131.028 -60.5599 -9.52656
74 130.365 -56.3852 -10.129
74 134.545 -55.591 -9.23726
74 132.142 -55.8083 -8.08856
74 134.046 -53.2847 -7.87862
74 135.743 -52.6512 -5.85028
74 138.413 -50.4162 -8.76901
74 140.273 -43.717 -11.9192
74 142.776 -43.3938 -13.0825
74 144.394 -38.8387 -14.5849
74 146.233 -38.2064 -12.6382
74 145.487 -37.9002 -9.46178
74 147.177 -35.5767 -9.22967
74 146.409 -35.1437 -6.09229
74 149.51 -33.2576 -12.0754
74 148.828 -32.901 -9.05018
74 150.838 -30.4805 -8.93824
74 148.15 -32.4616 -5.90143
74 152.738 -27.8798 -8.57762
74 116.409 -82.9681 -9.74202
0 115.531 -82.0667 -7.49189
74 120.192 -81.2679 -18.5253
74 119.227 -80.8747 -12.5608
74 122.666 -78.777 -21.4077
74 124.422 -78.4709 -19.3187
74 121.991 -78.5869 -18.1593
74 121.203 -75.3202 -5.79749
74 123.846 -75.9781 -18.1635
74 124.246 -73.0713 -11.5311
74 121.895 -75.5023 -8.87527
74 125.063 -73.2442 -14.6742
74 126.067 -72.4159 -9.50749
74 123.542 -72.839 -8.51675
74 128.416 -68.3359 -14.2941
74 130.96 -67.9652 -15.35
74 130.254 -67.6068 -12.2461
74 127.7 -67.9074 -11.1857
74 131.396 -62.8762 -10.865
0 132.688 -61.2365 -6.6921
74 133.458 -60.4387 -10.6813
74 135.144 -58.0262 -10.4738
0 133.801 -58.4319 -3.3853
74 137.047 -55.3376 -10.2705
74 136.269 -54.9717 -7.13931
74 141.726 -50.632 -12.9419
74 138.957 -52.7558 -10.0729
74 143.626 -48.015 -12.6419
74 140.878 -50.1593 -9.87482
74 148.014 -39.724 -8.65162
74 150.304 -37.3544 -11.7183
74 152.072 -35.1578 -11.3629
74 151.294 -34.6573 -8.28169
74 153.132 -32.13 -8.19857
74 155.038 -29.4826 -8.02849
74 129.197 -74.2822 -11.9287
74 126.81 -72.79 -12.5545
74 131.639 -72.163 -14.905
74 132.841 -69.3555 -11.4989
74 131.973 -65.2851 -12.1182
74 136.282 -64.4788 -11.1351
74 133.983 -62.8577 -11.9649
74 138.377 -60.0455 -12.8097
74 135.905 -60.3355 -11.7837
74 140.038 -59.3823 -10.7277
74 137.52 -59.5728 -9.74192
0 136.315 -58.1774 -4.4471
74 141.767 -56.8058 -10.5283
74 139.272 -57.0038 -9.50773
74 143.64 -54.1968 -10.3344
74 146.171 -47.8268 -13.6773
74 153.998 -36.2218 -7.61869
74 155.614 -33.8928 -7.36881
74 175.026 -15.1146 -18.9645
0 120.17 -82.4573 3.39874
74 136.993 -68.6003 -10.6122
74 138.908 -66.0863 -10.2017
74 144.275 -58.502 -9.67181
74 148.683 -53.663 -12.301
74 146.427 -52.046 -13.1418
74 150.899 -49.3274 -14.028
74 148.34 -49.5049 -12.9715
74 179.443 -15.2272 -19.462
0 98.1046 -119.575 5.94519
74 100.846 -110.514 22.9483
74 139.676 -66.454 -13.2924
74 140.705 -65.6201 -8.26643
74 145.779 -63.0755 -12.2436
74 145.026 -62.7878 -9.04406
74 142.484 -63.0726 -8.04262
74 148.421 -60.7103 -14.9726
74 147.68 -60.454 -11.9463
74 149.367 -57.836 -11.7026
74 146.777 -56.2284 -12.4799
74 151.385 -51.6379 -15.3195
74 153.081 -51.0875 -13.3928
74 143.871 -51.0465 18.8859
74 154.752 -50.3662 -11.3359
74 156.727 -47.8289 -11.0662
74 105.023 -109.794 23.7647
0 121.832 -90.3094 12.5295
74 141.482 -70.0711 -7.93095
74 143.296 -67.4769 -7.57869
74 150.114 -58.421 -14.6884
74 151.786 -55.695 -14.5449
74 153.763 -53.6205 -14.5684
74 155.258 -52.7509 -12.4586
74 157.213 -52.2323 -10.6157
74 159.217 -49.6476 -10.4039
74 158.587 -47.3151 -9.14323
74 196.233 -8.90134 -40.6254
74 121.582 -112.144 -32.489
0 141.465 -73.4475 -5.34804
0 144.408 -68.0709 -1.80854
74 156.033 -56.7517 -11.9026
74 157.838 -54.6283 -11.7339
74 159.782 -54.0441 -9.82608
74 113.596 -104.341 29.1246
0 133.581 -97.1967 -3.76169
74 133.007 -82.0835 33.1862
0 145.637 -83.1829 -16.6742
0 144.957 -78.7276 4.0154
0 149.336 -73.8164 1.40669
0 124.718 -115.411 -12.6006
0 123.283 -114.946 -6.45236
0 130.281 -101.388 3.93343
0 142.627 -92.7292 -16.6545
0 139.756 -91.7984 -4.35809
0 143.416 -86.6545 -3.89269
74 134.103 -84.6077 33.7577
0 142.131 -102.021 -17.6966
0 141.447 -99.7035 -16.4021
0 137.858 -98.54 -1.03157
0 149.163 -86.3783 -9.09038
0 149.953 -80.3036 3.67142
0 143.533 -104.571 -22.0652
0 143.571 -100.349 -4.44965
0 141.418 -99.6505 4.77265
0 145.401 -97.7766 -4.21695
0 151.287 -87.0234 2.86204
0 155.628 -86.3348 -17.3622
0 154.91 -86.1021 -14.2881
0 154.553 -84.9168 -3.05346
0 144.578 -105.936 -15.1991
0 141.707 -105.005 -2.90274
0 140.271 -104.54 3.24546
0 139.554 -104.307 6.31956
0 147.487 -102.644 -9.88004
0 144.973 -102.899 -8.81824
0 146.77 -102.412 -6.80594
0 144.255 -102.666 -5.74414
0 146.052 -102.179 -3.73184
0 143.898 -101.481 5.49047
0 146.085 -100.094 -5.51144
0 147.882 -99.607 -3.49914
0 145.368 -99.8614 -2.43734
0 147.164 -99.3743 -0.425037
0 144.65 -99.6287 0.636757
0 143.214 -99.1633 6.78496
0 150.43 -97.2677 -6.34054
0 146.48 -97.0568 0.869455
0 145.762 -96.8241 3.94356
0 150.464 -95.1829 -8.12015
0 152.261 -94.6958 -6.10784
0 149.746 -94.9502 -5.04605
0 151.543 -94.4631 -3.03374
0 152.294 -92.611 -7.88745
0 137.261 -114.086 3.26518
0 146.307 -109.619 -9.62762
0 145.59 -109.386 -6.55352
0 143.075 -109.64 -5.49172
0 149.968 -104.475 -9.16222
0 147.454 -104.729 -8.10043
0 149.25 -104.242 -6.08812
0 146.736 -104.496 -5.02633
0 148.533 -104.009 -3.01402
0 149.284 -102.157 -7.86773
0 148.566 -101.925 -4.79363
0 150.363 -101.437 -2.78132
0 147.848 -101.692 -1.71953
0 154.703 -100.749 -23.0055
0 152.911 -99.0981 -5.62273
0 149.679 -99.1199 -1.48683
0 152.945 -97.0133 -7.40233
0 152.227 -96.7806 -4.32823
0 147.92 -95.3844 14.1164
0 154.775 -94.4413 -7.16964
0 154.057 -94.2086 -4.09554
0 160.589 -89.9955 -15.9265
0 147.747 -107.946 3.61929
0 144.515 -107.968 7.75519
0 153.167 -106.538 -11.5185
0 150.652 -106.792 -10.4567
0 149.934 -106.56 -7.38261
0 149.217 -106.327 -4.30851
0 148.142 -104.909 10.0002
0 152.483 -104.22 -10.224
0 151.765 -103.988 -7.14992
0 158.263 -101.859 -17.2013
0 155.749 -102.114 -16.1395
0 152.877 -101.183 -3.84312
74 165.408 -97.1368 -33.0199
0 158.335 -95.5519 -1.36542
74 167.695 -96.9828 -35.2866
0 150.874 -116.317 -14.5729
0 146.567 -114.921 3.87171
0 148.754 -113.534 -7.1302
0 146.244 -111.65 13.3267
0 146.996 -109.798 8.473
0 152.81 -105.353 -0.283903
0 160.744 -103.69 -16.4835
0 158.59 -102.992 -7.2612
0 155.358 -103.013 -3.12531
0 157.155 -102.526 -1.113
0 161.138 -100.652 -10.1026
0 160.421 -100.42 -7.0285
0 156.471 -100.209 0.181492
0 158.267 -99.7215 2.1938
0 157.549 -99.4888 5.2679
0 153.599 -99.2778 12.4779
0 161.89 -98.8002 -14.9563
0 158.301 -97.6367 0.41419
74 170.679 -96.2344 -34.1214
74 167.73 -98.6863 -33.1791
74 169.897 -95.945 -30.6149
74 168.524 -98.2135 -30.6261
0 160.131 -95.0647 0.646887
74 169.9 -96.6787 -36.6844
0 153.355 -118.147 -13.8551
0 158.128 -110.199 -10.0829
0 159.992 -105.542 -11.6298
0 161.071 -104.822 -6.54339
0 161.105 -102.737 -8.323
0 162.901 -102.25 -6.31069
0 160.387 -102.504 -5.24889
0 162.217 -99.9324 -5.0162
0 162.612 -96.8951 1.3647
74 172.987 -97.6512 -34.1936
0 155.836 -119.977 -13.1373
0 156.659 -111.818 -2.15507
0 158.85 -108.293 6.23813
0 166.822 -102.408 7.65404
0 165.965 -112.652 -1.54854
0 170.449 -99.3488 9.89904
74 168.762 -123.115 -27.9058
74 168.7 -121.459 -23.9051
0 185.565 -97.8751 -17.6464
74 184.983 -94.5792 4.01926
74 182.237 -96.4704 6.67957
74 184.091 -94.3846 7.20637
74 182.053 -121.384 -40.1353
74 184.47 -118.087 -35.2398
74 189.11 -95.5115 6.4708
74 186.346 -95.9065 7.76426
