ITEM: TIME
40.0
ITEM: TIMESTEP
0
ITEM: NUMBER OF ATOMS
312
ITEM: BOX BOUNDS pp pp pp
-237.39 237.39
-237.39 237.39
-237.39 237.39
ITEM: ATOMS type x y z
74 20.6601 -23.6794 88.459
74 30.1017 -26.4828 79.901
74 31.9154 -28.4976 79.9647
74 30.6836 -23.691 75.1812
74 30.3005 -25.2844 77.483
74 32.955 -22.1591 75.6283
74 32.199 -29.9567 73.6556
74 34.674 -28.6976 73.7809
74 32.7686 -26.8257 73.5126
74 35.097 -25.5104 73.7471
74 37.0405 -27.39 73.9855
0 31.1834 -23.1378 67.5491
0 55.6781 -34.5061 87.6222
0 50.4051 -28.0475 75.7528
0 50.6679 -29.9345 69.1225
0 32.9797 -19.3642 47.2796
0 51.3641 -21.9674 71.0382
0 47.8702 -39.4527 62.6539
0 56.2038 -38.2801 74.3616
0 55.7816 -24.1068 69.1777
0 56.8269 -35.3449 69.7732
74 5.67985 -17.3724 7.25997
0 4.07362 -2.16644 1.95036
0 -0.0566948 -0.236776 -0.651455
74 81.0133 14.4651 88.3016
0 57.45 -32.4098 65.1847
0 57.7859 -29.2649 65.0585
0 50.8201 -16.1806 55.0141
0 52.1526 -27.6284 51.1473
0 40.3228 0.0912726 35.6114
74 83.0967 -48.0544 84.8355
74 45.793 17.6066 30.5557
74 45.6978 19.2654 32.7285
74 46.6886 23.5713 30.376
74 44.4763 25.3166 30.1554
74 71.5953 25.4526 58.9717
0 48.1745 -11.9449 34.4371
74 49.8519 13.9653 30.9696
74 47.8199 15.7694 30.7729
0 36.9921 20.3873 16.4808
74 48.7046 20.1015 28.5477
74 48.8277 23.3404 28.4952
74 46.3675 20.7164 30.5205
74 73.8023 23.8014 59.2299
0 45.0032 -3.93511 27.1207
74 47.6549 11.2368 28.5877
74 47.9984 14.4136 28.3908
74 50.9685 19.7993 26.7973
74 48.2916 17.2738 28.5728
74 49.049 21.7884 26.2898
74 74.6508 45.4376 53.6092
74 0.517536 -13.3447 -28.22
74 -0.874126 -8.71856 -32.7177
0 57.0582 -12.869 35.0523
0 43.1887 -5.69595 18.1054
74 50.5391 12.2104 24.5093
74 53.0509 17.9316 26.8441
74 49.1959 20.2191 24.1403
74 80.5207 43.3077 52.6811
0 45.6396 -23.3501 21.3382
74 3.7428 -9.11943 -32.2925
0 52.1211 -3.26548 23.0567
0 38.9234 10.1974 5.85752
74 11.4635 -28.7464 -20.5582
0 50.7532 -17.5224 21.3934
74 7.65279 -11.051 -29.712
74 6.42484 -6.38793 -34.4886
0 45.5046 -9.38644 11.692
0 26.833 -6.57352 -7.60424
74 68.8938 -6.85397 38.6888
74 69.2819 -5.05379 36.6279
0 57.595 7.38443 25.1538
0 50.6049 18.7914 12.9413
0 59.3254 -19.9141 24.3028
74 12.2699 -9.99727 -31.6759
74 10.6151 -6.7697 -34.2186
74 -7.48992 -5.17486 -52.6521
74 71.2122 -8.50049 34.5183
74 73.2181 -8.75437 36.9019
0 44.7221 -0.0352904 4.46631
74 69.5567 -3.74939 34.2941
74 71.6738 -3.79003 36.5895
74 74.1394 -2.5991 36.8033
0 38.5145 2.02055 -0.52042
74 72.24 0.655944 34.3995
74 71.9367 -0.927942 36.6998
0 45.0823 4.78691 6.50817
0 51.6259 5.87596 11.3687
0 59.6236 3.90364 23.2026
74 72.7562 3.70748 34.2896
74 72.9542 6.81149 34.2557
74 14.6167 -10.4773 -33.7414
74 75.0083 -15.4072 35.1771
74 14.4417 -9.89372 -29.846
74 18.8868 -8.87441 -27.3176
74 70.731 -13.2507 32.6572
74 17.5003 -4.29383 -31.6331
74 75.538 -7.43717 36.8646
0 34.2868 -2.75899 -11.7944
74 73.5956 -5.62379 36.6851
74 76.0361 -4.56039 36.977
0 64.0411 1.76427 21.3422
74 74.4137 0.220767 36.6759
0 39.1376 4.95573 -5.10886
74 74.7592 1.89591 34.4529
0 64.7129 8.05406 21.0898
74 75.1497 5.08679 34.5403
74 76.74 6.2901 38.8984
0 93.7335 25.2831 51.3368
0 86.7678 38.3674 41.2924
74 16.7286 -10.4181 -31.9313
74 21.6225 -7.82908 -31.3457
74 75.0897 -13.9051 32.8748
74 77.5835 -10.8743 34.9528
74 77.245 -13.957 35.3021
74 81.6132 -12.7087 37.7047
74 21.8128 -4.69283 -31.3344
74 23.6113 -6.06496 -27.0607
0 55.0114 -7.3754 7.71878
74 77.9975 -7.71742 34.8339
0 41.1419 -0.202351 -9.22805
0 47.3738 -0.580892 -2.07328
0 51.5285 -0.833252 2.69657
74 78.3936 -4.61376 34.9255
74 80.862 -3.32105 34.9925
0 47.7097 2.564 -2.19946
74 78.426 -0.218163 37.0481
74 80.857 1.13654 37.0775
0 43.5794 4.49366 -4.80127
74 79.084 1.36966 34.8965
0 57.0267 11.494 6.9617
0 65.6719 14.1341 16.3752
0 69.8509 15.5591 23.3131
0 28.3553 -24.9403 -24.6055
74 79.2032 -17.3723 33.3773
74 79.5016 -14.2158 33.1186
74 81.839 -12.8851 33.2763
74 23.954 -6.34767 -31.4908
74 79.6817 -11.0934 32.9732
0 57.7118 -4.5664 5.51527
0 59.4776 -6.16017 10.1944
74 80.3887 -6.42823 34.96
74 82.2621 -8.26822 35.308
74 84.3691 -8.36413 37.7595
0 103.413 -7.34236 57.9836
0 43.1948 -2.00583 -9.01116
74 82.7919 -5.17499 35.1725
74 85.0723 -3.8832 35.297
74 86.9922 -2.40291 39.7629
0 58.3836 1.72339 5.26291
74 82.9946 -0.412393 37.2424
0 56.6421 4.99446 2.7518
0 56.3306 3.52687 5.04602
0 58.7195 4.86828 5.13673
0 60.7968 4.7421 7.52165
74 83.3433 1.34735 35.034
0 56.978 8.13936 2.62562
0 56.6665 6.67177 4.91984
74 83.9197 7.17001 34.6747
74 83.5777 5.5067 37.0589
0 67.389 9.18576 16.7183
74 82.2472 9.06364 30.3349
74 84.639 13.1934 34.5278
74 84.8512 14.9659 32.3748
0 26.9011 -21.8789 -31.5789
0 53.1726 -10.8135 -3.46448
0 43.4577 -3.89285 -15.6415
74 84.5851 -8.59513 33.2483
0 37.2501 -1.837 -20.6282
0 52.1272 0.424629 -4.0599
0 69.0574 0.882779 12.7253
74 87.5059 -0.982408 37.5182
0 56.6178 3.31716 0.583764
0 58.6951 3.19098 2.96869
0 71.495 5.57879 17.1521
0 53.4465 11.3269 -6.73266
0 55.5238 11.2007 -4.34774
0 61.4442 9.35459 5.10125
74 84.2434 7.31788 30.1236
0 68.3236 13.5885 9.83563
74 86.9669 13.1137 32.3585
74 86.5799 10.0001 32.6269
74 85.1636 16.3692 29.9309
0 45.1504 -10.5185 -17.4664
0 51.3824 -10.8971 -10.3117
0 43.4333 -5.57015 -17.8095
0 49.6653 -5.94869 -10.6547
0 43.7692 -2.42525 -17.9357
0 45.8466 -2.55143 -15.5508
0 56.5447 -1.71474 -5.92035
0 52.4144 0.214918 -8.52216
0 71.4219 0.546888 10.6479
74 87.4614 -2.64099 31.0809
0 52.7503 3.35981 -8.64834
0 65.2143 2.60273 5.6612
74 90.2369 3.12783 32.9523
74 89.9283 0.486187 33.4597
0 57.2409 6.25234 -4.00467
0 69.7048 5.49526 10.3049
0 74.171 6.71049 12.7805
0 65.8861 8.89252 5.40884
0 70.6882 13.2526 7.75829
0 58.5601 17.1546 -6.67743
74 118.42 38.2119 56.7743
74 120.748 41.0869 58.9756
0 63.7977 -15.0087 -0.338191
0 60.3392 -6.7893 -3.19236
0 54.4431 -3.26587 -10.4733
0 71.3732 -2.80772 6.31186
0 61.6584 4.11297 -5.86512
0 59.9169 7.38405 -8.37623
0 61.9943 7.25786 -5.9913
0 63.7601 5.66409 -1.31216
0 66.1489 7.0055 -1.22145
0 70.3036 6.75314 3.5484
0 72.0694 5.15937 8.22754
0 74.4826 8.17809 10.4863
0 76.8715 9.5195 10.577
0 64.7434 13.4215 -3.85874
74 122.602 37.5314 56.966
74 114.803 41.3904 52.1677
74 116.835 41.2233 54.5083
74 121.035 40.9611 54.6728
0 52.2927 -8.17159 -19.3624
0 73.7378 -3.14361 4.23453
0 73.4262 -4.6112 6.52875
0 61.6097 0.758368 -10.2012
0 67.8417 0.379827 -3.04643
0 59.5567 2.56185 -10.4181
0 65.7887 2.18331 -3.26331
0 68.1776 3.52472 -3.17261
0 64.3832 8.59928 -5.9006
74 56.5653 14.4268 -16.964
0 81.3377 10.7347 13.0526
74 55.0536 17.6131 -19.5782
0 81.6735 13.8796 12.9264
74 118.384 36.3845 50.1526
74 119.064 40.8922 52.1489
74 27.8994 -44.2184 -47.1582
0 72.7058 -14.2556 2.44503
0 50.191 -9.72271 -23.9153
0 40.1403 -5.94692 -35.9661
0 52.9158 -5.23641 -23.9508
0 58.8362 -7.08254 -14.5018
0 53.2517 -2.09152 -24.077
0 59.4837 -2.47006 -16.9222
0 63.3268 -4.19001 -9.85813
0 65.4041 -4.31619 -7.47321
0 44.9667 0.0905071 -31.4486
0 61.5854 -0.918934 -12.3692
0 70.2062 0.0439362 -5.12376
0 76.7741 2.81029 1.90483
74 57.5204 7.19042 -21.8632
0 70.878 6.33372 -5.37612
74 55.4634 10.8834 -25.1009
0 68.825 8.13721 -5.59301
0 69.1609 11.2821 -5.71919
0 77.8061 13.9223 3.69433
74 57.3083 17.5089 -21.366
0 60.1688 -18.5304 -18.3686
0 53.2274 -3.76882 -26.245
74 97.6636 -7.27815 23.9093
0 72.2592 -1.75955 -4.90687
0 68.7763 4.7826 -9.92908
0 75.0083 4.40406 -2.77431
74 58.9384 8.95363 -23.2938
0 83.965 8.51182 4.34499
74 59.3962 14.1755 -23.0987
0 80.4822 15.054 -0.677221
74 59.6006 17.3169 -23.0611
74 102.781 27.0147 21.73
0 58.7145 -15.4691 -25.342
74 61.5638 12.195 -23.3743
0 114.031 14.5027 35.1874
74 102.436 24.2014 21.3903
74 104.832 25.3405 21.4815
74 106.697 25.2318 24.0009
74 104.723 27.0563 23.685
74 107.589 29.6935 21.8397
0 87.3505 -4.73953 0.695044
0 77.3241 0.713566 -9.18772
0 76.9263 16.5642 -12.2035
0 93.8564 17.0224 4.58163
74 66.9631 28.8296 -26.8712
74 106.833 23.6196 21.8152
74 109.088 26.4939 24.1657
0 96.232 40.7139 5.86641
74 62.1664 -18.6518 -31.731
0 73.0965 -4.06598 -20.4617
74 66.232 -22.3534 -31.3174
74 62.1287 -20.2333 -34.0194
74 64.1784 -20.5163 -31.4646
0 82.7626 -14.3413 -12.6208
74 92.0581 -12.6084 -0.906834
74 94.3753 -9.65204 1.38184
74 65.9346 -26.8759 -33.3453
74 70.6813 -22.7896 -30.9621
74 66.4113 -20.783 -33.5712
0 98.2253 11.5284 -1.61489
0 104.731 33.2903 2.27169
74 68.2438 -28.5003 -33.1098
74 102.812 10.0981 -2.44592
74 104.6 5.18112 -6.2882
74 107.142 9.6701 -2.27986
0 99.1488 -8.09629 -11.8597
74 135.279 -1.55345 29.36
74 109.462 11.095 -2.02457
0 123.073 31.0226 -5.42246
74 117.008 20.9744 -16.563
74 108.681 -13.8269 -27.7274
74 106.584 21.1334 -42.7394
74 104.844 -9.5481 -49.6027
