ITEM: TIME
40.0
ITEM: TIMESTEP
0
ITEM: NUMBER OF ATOMS
642
ITEM: BOX BOUNDS pp pp pp
-237.39 237.39
-237.39 237.39
-237.39 237.39
ITEM: ATOMS type x y z
74 113.362 116.081 100.029
74 32.2553 28.535 26.2819
74 32.5119 30.5089 20.074
74 31.825 30.8864 23.0866
74 31.1737 31.1565 26.1588
74 102.405 70.9207 51.0086
74 34.6958 27.6351 25.4569
0 124.913 96.1621 127.993
0 42.2206 24.0585 3.79396
0 46.7886 25.0804 6.16925
0 49.5604 26.5665 6.52646
0 67.1338 28.5816 -26.027
74 88.0185 56.1741 41.9146
0 135.845 97.7415 134.762
0 49.1411 15.407 -27.9378
0 53.5055 19.0937 -21.0448
0 56.867 20.2226 -23.7769
74 79.4546 37.9279 1.91811
74 81.663 39.4731 2.41528
0 131.86 88.1179 107.547
0 139.586 92.9335 111.708
74 19.8821 6.15902 19.9577
0 37.1054 8.11961 -16.4198
0 45.2173 15.2427 -10.8305
0 58.2771 17.4507 -23.1873
0 58.5139 23.6379 5.33087
0 59.4896 25.5882 3.67
74 79.1504 35.5755 0.464589
74 119.376 66.1437 63.1305
74 122.714 67.3173 60.5203
74 122.148 67.6116 63.6279
74 116.934 71.8207 87.9291
0 15.9882 0.00322878 12.9196
74 19.6236 3.76725 18.5629
74 20.7351 5.65015 16.9545
74 23.8921 6.75726 14.4832
0 36.3334 3.50447 -19.2767
0 41.8498 5.86931 -29.8483
0 44.6216 7.35542 -29.4911
0 39.3148 10.5703 -1.68734
0 40.9073 12.7708 4.84847
0 55.7361 13.9072 -16.7762
0 58.1279 21.3303 3.90244
0 68.2395 25.3244 6.99215
0 73.7832 28.2966 7.70657
74 83.3237 27.9572 -28.5017
74 75.4168 32.742 23.9865
74 85.5504 29.6458 -25.0805
74 87.441 31.558 -21.6669
74 114.353 72.5348 106.594
0 125.539 72.2861 82.2262
0 132.675 77.4588 89.4764
0 137.656 81.3956 104.566
74 142.706 88.0985 128.211
0 16.7814 -3.01877 5.31252
74 20.1501 1.54123 22.1964
74 25.278 2.53284 21.9114
74 28.1127 4.14227 22.1724
74 29.7836 5.30098 17.4851
0 42.6703 3.45469 -26.1693
74 53.3567 3.52165 -47.634
0 47.6243 6.78412 -22.3656
0 45.2929 8.82033 1.2776
0 51.6026 8.16318 -16.901
0 49.0404 12.2568 -0.0260629
0 62.453 7.92051 -43.9903
0 53.6084 13.2787 2.34923
0 57.5595 14.0503 -3.47217
0 58.5624 16.6081 6.15295
0 65.4345 14.9864 -26.4009
0 69.4128 16.3654 -20.9363
0 68.6195 19.3874 -13.3293
0 68.0299 19.7446 -10.24
74 85.6363 25.1646 -22.9827
74 75.7842 30.7152 19.9799
74 77.2302 29.1252 21.5526
74 77.3997 31.474 22.7346
74 79.1627 31.084 24.6867
74 77.1259 32.3129 25.9232
74 78.835 31.8987 27.9315
74 146.417 81.3977 97.1129
74 144.075 82.4047 98.2707
74 144.089 85.3113 128.73
74 143.468 85.7717 131.879
74 146.613 89.3796 133.605
74 19.9109 -3.27458 19.766
74 20.6427 -1.31749 17.9778
74 24.9494 0.206723 20.5286
74 22.6038 0.918869 21.5183
74 29.3459 1.63668 23.0108
74 31.1162 2.82204 18.0216
74 30.4773 3.37097 21.1987
0 41.3358 -0.195876 -14.6509
0 40.1565 0.518544 -8.4723
0 41.749 2.71907 -1.93648
0 44.5209 4.20518 -1.57927
74 55.1768 0.446922 -50.0552
0 46.6758 5.44113 -9.41874
0 48.472 4.97687 -7.40066
0 46.0862 5.79834 -6.32944
0 53.0127 5.39135 -16.3114
0 52.4231 5.74856 -13.2221
0 57.5535 5.80583 -25.2221
0 55.1677 6.6273 -24.1508
0 56.9638 6.16304 -22.1328
0 56.3742 6.52025 -19.0434
0 54.0156 7.94909 -6.68624
0 51.657 9.37793 5.67096
0 59.7356 7.64915 -21.7755
0 56.1706 9.18503 -14.5257
0 57.9667 8.72078 -12.5076
0 55.6081 10.1496 -0.150428
0 53.2223 10.9711 0.920794
0 55.0185 10.5068 2.93887
0 62.5075 9.13526 -21.4183
0 58.9424 10.6711 -14.1685
0 60.7385 10.2069 -12.1504
0 58.3527 11.0284 -11.0792
0 60.1489 10.5641 -9.06112
0 58.38 11.6357 0.206782
0 55.9942 12.4572 1.278
0 54.8149 13.1716 7.45661
0 65.8689 10.2642 -24.1504
0 63.4831 11.0856 -23.0792
0 61.1246 12.5145 -10.722
0 61.1518 13.1218 0.563993
0 59.9725 13.8363 6.7426
0 57.5867 14.6577 7.81382
0 60.9482 15.7866 5.08173
0 66.1058 16.4513 4.36772
0 70.0569 17.223 -1.45368
0 67.0814 18.4016 2.70685
74 86.288 22.6521 -19.5242
74 79.3564 27.9133 20.3663
74 78.6425 26.3322 22.3763
74 78.8901 28.7091 23.5389
74 80.5991 28.3213 25.5661
74 78.4243 29.4459 26.6751
74 82.594 30.2961 28.7208
74 82.871 32.6266 29.8438
74 84.5529 32.1869 31.9458
74 83.7961 30.7667 34.2363
0 96.243 39.3428 39.9045
0 100.607 43.0294 46.7975
0 109.926 50.0455 57.4942
0 119.244 57.0615 68.191
0 122.606 58.1904 65.4589
0 120.22 59.0119 66.5301
0 145.43 79.1814 109.549
74 141.967 81.5596 131.924
74 144.818 82.9894 132.279
74 142.53 83.7437 133.54
74 146.673 84.5183 127.995
74 147.554 86.4868 126.325
74 146.808 86.8892 129.34
74 22.1876 -6.49858 20.1511
74 24.4454 -5.51254 18.0679
74 23.6552 -3.80291 20.7452
74 25.4038 -3.40744 16.4483
74 28.4847 -4.73709 18.332
74 26.2501 -2.21219 21.3527
74 29.6517 -2.5981 16.3392
74 30.9375 -3.35019 18.757
74 30.8301 -1.10938 23.5595
74 33.685 -1.78229 19.1367
74 31.732 0.89832 21.8701
0 43.1319 -0.660131 -12.6328
0 42.5423 -0.302921 -9.54352
0 44.3384 -0.767177 -7.52544
0 41.9527 0.0542885 -6.45422
0 43.1592 -0.0527572 -1.34684
0 50.6209 -2.0317 -36.99
0 50.0313 -1.67449 -33.9007
0 50.0585 -1.06712 -22.6147
0 46.5206 1.07614 -4.07893
0 44.1348 1.89761 -3.0077
0 45.931 1.43335 -0.989625
0 49.8549 1.59767 -18.097
0 50.4717 1.84783 -9.90032
0 49.2924 2.56225 -3.72172
0 55.6021 1.9051 -21.9003
0 52.6267 3.08378 -17.7398
0 53.8332 2.97673 -12.6324
0 49.0888 5.22703 0.796019
0 53.6296 5.64151 -8.11468
0 55.4257 5.17726 -6.0966
0 54.8361 5.53447 -3.00729
0 59.3496 5.34157 -23.204
0 58.76 5.69878 -20.1147
0 58.7872 6.30616 -8.82869
0 56.4014 7.12762 -7.75746
0 58.1975 6.66337 -5.73939
0 55.8118 7.48483 -4.66816
0 57.6079 7.02058 -2.65008
0 55.2221 7.84204 -1.57886
0 57.0183 7.37779 0.439218
0 54.6325 8.19925 1.51044
0 61.5318 7.18489 -19.7575
0 62.7383 7.07785 -14.6501
0 60.3525 7.89931 -13.5789
0 62.1487 7.43506 -11.5608
0 59.7629 8.25652 -10.4896
0 61.559 7.79227 -8.47148
0 59.1732 8.61373 -7.40025
0 60.9694 8.14948 -5.38218
0 58.5836 8.97094 -4.31095
0 60.3797 8.50669 -2.29287
0 57.9939 9.32815 -1.22165
0 59.7901 8.8639 0.796428
0 57.4043 9.68536 1.86765
0 58.0212 9.93553 10.0643
0 63.1243 9.38542 -13.2216
0 64.9205 8.92117 -11.2036
0 62.5347 9.74263 -10.1323
0 64.3308 9.27838 -8.11427
0 61.945 10.0998 -7.04304
0 63.7412 9.63559 -5.02496
0 61.3554 10.4571 -3.95374
0 63.1515 9.9928 -1.93566
0 60.7658 10.8143 -0.86444
0 62.5619 10.35 1.15364
0 60.1761 11.1715 2.22486
0 61.3826 11.0644 7.33224
0 68.2819 10.0501 -13.9357
0 67.6923 10.4073 -10.8464
0 65.3065 11.2287 -9.77513
0 67.1027 10.7645 -7.75706
0 64.7169 11.586 -6.68583
0 66.513 11.1217 -4.66775
0 64.1272 11.9432 -3.59653
0 65.9234 11.4789 -1.57845
0 63.5376 12.3004 -0.50723
0 65.3337 11.8361 1.51085
0 62.9752 13.265 13.8681
0 71.0538 11.5362 -13.5784
0 68.668 12.3576 -12.5072
0 70.4641 11.8934 -10.4891
0 66.3094 13.7865 -0.150019
0 67.5159 13.6794 4.95736
0 64.5405 14.8581 9.11789
0 72.6191 13.1293 -18.3286
0 71.467 14.4511 -0.864031
0 75.4181 15.2228 -6.68542
0 74.8285 15.58 -3.59612
74 67.7643 22.3187 32.2055
74 73.8295 22.0969 25.7631
74 75.5724 21.4388 27.7942
74 70.5089 23.8798 32.5877
74 69.9227 24.1522 35.6561
74 76.5089 23.1602 26.0714
74 78.2264 22.5935 28.0822
74 73.2413 25.3189 33.0821
0 84.1196 21.9887 -4.18536
74 80.6449 25.3965 20.7903
74 79.8699 23.7707 22.9027
74 81.0173 23.935 28.3658
74 80.4912 24.5529 31.4591
74 80.2911 25.9409 24.4411
74 81.993 25.6053 26.5202
74 84.7659 29.1609 27.5528
74 86.4967 28.6952 29.571
74 81.8699 28.6469 30.7647
74 81.4374 29.3303 33.9792
0 100.221 40.7218 45.3691
0 111.722 49.5812 59.5123
0 122.247 56.4902 75.3165
0 125.019 57.9764 75.6737
74 127.515 65.0506 90.6141
74 146.696 78.6654 115.687
0 152.77 81.6893 112.282
0 152.417 88.2336 143.889
74 23.0691 -9.58036 21.0441
74 24.3026 -7.89328 19.3862
74 26.0363 -8.56224 21.48
74 27.1395 -6.65557 19.8865
74 30.3412 -5.21692 14.4636
74 29.995 -5.3212 20.4191
74 31.7444 -5.77133 22.4138
74 32.6747 -3.7585 20.7495
0 49.6725 -3.37469 -24.0432
0 47.3139 -1.94585 -11.686
0 45.545 -0.874223 -2.41806
0 45.5722 -0.266849 8.86793
0 55.4197 -3.06726 -27.8465
0 54.8301 -2.71005 -24.7572
0 50.0857 -0.459743 -11.3288
0 50.7026 -0.209579 -3.13207
0 55.833 -0.152309 -15.1321
0 51.6782 1.74079 -4.79294
0 51.0886 2.098 -1.70364
0 50.499 2.45521 1.38566
0 51.7055 2.34816 6.49305
0 57.3983 1.44085 -19.8822
0 57.4255 2.04822 -8.59625
0 56.8359 2.40543 -5.50695
0 60.787 3.17712 -11.3283
0 60.1973 3.53433 -8.23904
0 57.8115 4.35579 -7.16782
0 59.6077 3.89154 -5.14974
0 57.2219 4.713 -4.07852
0 59.018 4.24875 -2.06044
0 56.6322 5.07021 -0.989215
0 58.4284 4.60596 1.02886
0 56.0426 5.42742 2.10009
0 56.6595 5.67759 10.2968
0 64.7381 3.94881 -17.1497
0 61.7626 5.12748 -12.9892
0 63.5588 4.66323 -10.9711
0 61.173 5.48469 -9.89991
0 62.9691 5.02044 -7.88183
0 60.5833 5.8419 -6.81061
0 62.3795 5.37765 -4.79253
0 59.9937 6.19911 -3.72131
0 61.7899 5.73486 -1.70323
0 59.4041 6.55632 -0.632005
0 61.2002 6.09207 1.38607
0 58.8144 6.91353 2.4573
0 57.0455 7.98516 11.7252
0 64.5345 6.61359 -12.632
0 63.9448 6.9708 -9.5427
0 65.741 6.50655 -7.52462
0 63.3552 7.32801 -6.4534
0 65.1513 6.86376 -4.43532
0 62.7655 7.68522 -3.3641
0 64.5617 7.22097 -1.34602
0 62.1759 8.04243 -0.274794
0 63.972 7.57818 1.74329
0 60.407 9.11406 8.99311
0 71.461 6.20661 -22.6139
0 69.6921 7.27824 -13.346
0 67.3063 8.0997 -12.2748
0 69.1024 7.63545 -10.2567
0 66.7166 8.45691 -9.18549
0 66.127 8.81412 -6.09619
0 67.9231 8.34986 -4.07811
0 65.5373 9.17133 -3.00689
0 64.9477 9.52854 0.0824166
0 64.3581 9.88575 3.17172
0 64.9749 10.1359 11.3684
0 70.0781 9.58581 -11.9176
0 69.4884 9.94302 -8.82828
0 67.7195 11.0146 0.439627
0 68.926 10.9076 5.54701
0 72.8499 11.0719 -11.5604
0 68.7224 13.5724 10.0647
0 81.369 12.8655 -15.0065
0 77.2143 14.7586 -4.66734
74 73.9733 20.1999 32.309
74 76.1426 21.9343 35.712
0 85.5297 19.2169 -3.59571
74 79.4622 22.7934 33.1832
74 78.8091 23.4813 36.19
74 81.5645 23.4748 25.1387
74 80.1089 25.0901 34.4906
74 86.2267 26.4528 28.3317
74 85.5263 25.3882 30.6357
0 124.043 56.026 77.3345
0 147.634 73.3875 102.532
0 151.022 75.1238 111.086
74 27.1804 -11.1682 21.9569
74 25.3646 -8.44262 24.5996
74 28.3481 -9.24684 20.3883
74 30.1046 -9.77191 22.4172
74 33.5985 -6.27844 24.3808
0 38.05 -7.74717 0.189258
74 35.1438 -7.00992 14.9034
74 34.6317 -6.71305 18.0876
74 36.497 -7.24565 20.0303
74 34.1292 -6.50945 21.243
0 43.2076 -7.08253 -0.524754
74 37.3337 -5.22063 18.3576
0 54.2949 -1.13809 0.904089
0 53.1156 -0.42367 7.08269
0 50.7298 0.397795 8.15391
0 51.7327 2.95553 17.779
0 59.2216 1.58396 -6.57817
0 61.0178 1.11971 -4.56009
0 58.632 1.94117 -3.48887
0 60.4282 1.47692 -1.47079
0 63.1728 2.35565 -12.3996
0 62.5831 2.71286 -9.31026
0 61.9935 3.07007 -6.22096
0 63.7896 2.60582 -4.20288
0 61.4038 3.42728 -3.13166
0 60.8142 3.78449 -0.0423586
0 64.7653 4.55618 -5.86375
0 64.1756 4.91339 -2.77445
0 64.7925 5.16356 5.42223
0 61.8171 6.34223 9.58276
0 63.4368 9.15013 27.4046
0 76.8222 4.20647 -27.8457
0 72.6675 6.09956 -17.5065
0 72.6947 6.70693 -6.22055
0 70.3362 8.13577 6.13665
0 72.4911 9.37172 -1.70282
0 78.8008 8.71457 -19.8814
0 78.2384 9.67915 -5.50613
0 77.0591 10.3936 0.672472
0 83.3688 9.73642 -17.5061
0 86.5266 13.5301 -15.7205
0 87.5567 16.6952 5.19062
74 82.9086 20.2612 22.4928
74 84.8414 20.029 24.5282
74 92.3752 20.4251 0.057083
74 147.344 75.1494 132.26
0 155.794 73.4809 108.943
0 161.927 76.0959 106.568
0 157.772 77.989 116.907
0 162.137 81.6756 123.8
0 32.9136 -16.049 -9.56063
74 28.9971 -11.5939 24.0663
0 41.4326 -14.2554 -13.0067
74 32.4914 -8.15253 25.9784
74 31.963 -7.94326 29.0809
74 39.0492 -8.38932 15.6588
74 37.5806 -9.78629 20.4685
74 35.9519 -7.02578 23.227
74 37.7327 -7.54589 25.1724
74 35.391 -6.79628 26.3636
0 68.148 -1.95206 -19.0597
0 62.814 0.655453 -2.54201
0 67.3819 1.67731 -0.166724
0 64.4337 3.46336 15.2798
0 68.9472 3.27046 -4.91689
0 70.1537 3.16341 0.190487
0 69.9501 5.8282 4.70822
0 69.3605 6.18541 7.79752
0 74.4909 6.24268 -4.20247
0 73.9012 6.59989 -1.11317
0 84.7789 6.96459 -16.9165
0 82.2167 11.0582 -0.0415394
0 81.6271 11.4154 3.04776
74 90.1342 14.401 1.65938
0 88.7632 16.5882 10.298
74 101.306 13.3698 -23.4078
74 93.4152 15.5295 -1.05935
74 95.3185 14.9081 0.842575
74 93.0265 15.805 2.02309
74 94.769 15.3621 3.98861
74 92.531 16.4186 5.10387
74 94.1826 15.9094 7.1249
74 103.568 15.483 -20.3381
74 103.166 15.9877 -17.1911
74 32.1564 -14.8195 26.4743
74 30.0363 -13.8894 27.835
74 33.7085 -10.7828 26.4175
74 34.9959 -13.3788 26.8288
74 38.1628 -10.3138 17.4498
74 38.8686 -12.5682 21.2241
74 38.9051 -10.1054 25.5718
74 36.6116 -9.40647 26.7666
74 39.929 -10.6507 19.5344
0 51.9575 -7.34639 2.79739
0 57.9144 -1.45923 16.2262
0 60.6862 0.0268818 16.5834
0 69.9441 -2.41632 -17.0417
0 68.1752 -1.34469 -7.77376
0 82.0343 6.08586 -5.98771
0 82.6512 6.33602 2.20898
74 91.8552 11.3676 -0.574043
0 96.6594 9.88703 -23.0947
74 93.8864 10.8361 1.21329
74 97.6782 11.6855 -4.57249
74 103.551 12.5789 -24.832
74 102.818 13.6909 -18.4884
74 99.0646 15.9638 -4.52943
74 100.008 13.3011 -1.33638
74 97.6777 14.0933 -0.248749
74 99.3844 13.7899 1.78148
74 98.1027 16.3345 1.2559
74 98.9004 14.1872 4.95445
74 97.5689 16.6569 4.51513
74 104.493 16.0152 -12.078
74 106.278 15.5554 -10.1964
74 102.161 15.3291 2.21993
74 120.805 35.7926 54.73
74 127.896 44.9641 72.2215
74 126.655 46.2444 73.938
74 36.2822 -15.9755 27.2612
74 33.9798 -15.2371 28.5238
74 35.8633 -15.6113 30.5435
74 40.6887 -15.6932 18.6843
74 39.6983 -15.0258 24.714
74 37.3197 -14.0332 25.6354
74 41.8767 -13.7094 17.3449
74 40.7207 -13.098 23.1574
0 64.6313 -7.44595 -10.9878
0 62.2727 -6.01711 1.36937
0 69.5853 -4.11652 -7.18411
74 88.9503 3.3066 -8.14891
74 91.7533 4.46441 -7.73629
74 94.3087 5.65044 -7.69373
74 96.3838 7.37788 -4.59429
74 99.6423 8.594 -7.05844
74 99.1897 8.8025 -4.2288
74 103.035 10.7857 -22.8851
74 104.21 10.9071 -17.884
74 103.444 11.8205 -11.4486
74 101.946 10.2819 -3.71222
74 99.5626 11.0703 -2.78493
74 101.265 10.7439 -0.745105
74 105.947 13.2119 -11.5049
74 105.327 11.3302 -9.59218
74 104.13 12.1844 -0.377795
74 101.707 13.0123 0.724347
74 103.508 12.5221 2.69902
74 102.786 12.8737 5.81927
74 107.977 15.0429 -8.28609
74 107.564 13.078 -6.31706
0 113.698 13.4741 -29.9869
74 139.428 58.9021 134.08
0 169.993 81.2835 162.641
0 41.9215 -17.7629 11.8157
74 42.4816 -16.3136 20.6736
74 38.643 -16.8816 26.4101
0 57.726 -14.6761 -11.4698
74 83.4398 -4.13301 -16.8916
74 81.0227 -3.24969 -15.7424
0 78.1316 -1.7156 0.655767
74 85.9606 -2.65152 -13.8854
74 83.5699 -1.71957 -10.173
74 88.4212 -1.22856 -10.8573
74 86.0738 -0.410139 -9.7976
74 91.2329 0.0131003 -13.1322
74 89.0527 1.26439 -11.9819
74 91.4328 2.20257 -9.05406
74 93.893 3.34845 -9.05593
74 96.4919 4.6558 -8.90514
74 99.7343 6.08153 -11.3073
74 96.1132 5.02993 -5.8083
74 99.2591 6.29111 -8.47057
74 105.631 8.1089 -17.3389
74 102.464 7.6609 -10.994
74 102.741 7.92884 -0.095589
74 107.1 8.13443 -12.2611
74 104.96 9.04439 -10.9449
74 107.463 10.4213 -10.9491
74 109.366 9.98884 -9.09664
74 107.282 10.8536 -7.6992
0 173.321 73.5605 126.873
74 37.5849 -18.9245 27.922
74 77.5196 -11.5726 -15.3923
74 78.6928 -9.69375 -16.9992
74 77.8568 -9.37258 -13.7875
74 80.3636 -8.02994 -13.5434
74 85.4048 -7.39841 -14.0147
74 83.0164 -6.44914 -12.8983
0 88.21 -6.57342 -29.2904
74 86.0241 -5.03001 -15.3296
74 87.8888 -6.07549 -13.7069
74 90.6055 -4.73454 -16.0161
74 88.055 -3.61587 -12.2564
74 90.6695 -2.43057 -11.9056
74 93.8192 0.801404 -13.33
74 95.1049 -1.73158 -9.87591
74 99.0021 1.46598 -14.1397
74 96.1228 2.40403 -10.3045
74 102.188 2.55006 -17.0462
74 98.5483 1.69967 -11.2686
74 103.761 3.39863 -25.089
74 104.088 2.12144 -15.1551
74 101.801 2.97509 -13.8933
74 103.713 2.52591 -11.9098
74 101.319 3.28057 -10.8415
74 106.537 3.52686 -14.9596
74 106.236 3.97674 -11.7731
74 104.645 6.73336 -12.2825
74 111.058 6.66845 -11.8957
74 111.413 8.92608 -10.4687
0 182.104 82.1486 163.231
74 76.8813 -13.8095 -16.9123
74 79.8706 -12.6115 -16.5538
74 84.2141 -11.6294 -13.8969
74 87.4732 -10.6567 -16.6148
74 86.7508 -10.3116 -13.4799
74 84.4334 -9.31423 -12.3469
0 79.7726 -6.54484 8.01366
74 88.9899 -8.36697 -20.8098
74 86.6009 -7.62902 -19.8271
74 86.2269 -7.58968 -17.0838
74 93.2693 -7.03811 -23.6607
74 90.4449 -7.10988 -17.522
74 92.3836 -8.17843 -15.9427
74 92.5644 -5.8425 -14.4925
74 95.0496 -4.43719 -14.4199
74 92.8836 -3.53912 -13.1295
74 97.4632 -5.16541 -15.4902
74 96.9143 -4.94427 -12.466
74 94.733 -4.02611 -11.2232
74 103.715 -0.190751 -16.5459
74 108.68 0.432577 -17.3599
74 107.94 3.01474 -17.1453
74 109.691 2.53908 -15.2029
74 108.362 3.12292 -13.0213
74 101.008 7.84407 29.1784
74 169.808 69.8796 163.917
74 188.646 75.1389 135.384
74 210.166 85.618 133.202
74 81.7417 -15.3837 -18.9648
74 86.175 -14.7385 -16.484
74 83.8295 -13.9715 -15.4274
74 87.9431 -12.9814 -21.3116
74 87.1568 -12.8746 -18.1492
74 86.5197 -12.526 -14.9774
0 83.5685 -10.1381 7.53209
74 92.7844 -13.0416 -22.1059
74 89.1674 -10.5797 -22.3563
74 88.2324 -10.925 -19.6956
74 96.5281 -12.1916 -25.1907
74 94.0988 -11.5007 -24.1782
74 92.862 -10.8115 -20.5572
74 92.258 -10.5054 -17.3986
74 96.4275 -10.027 -23.6296
74 98.1979 -8.14511 -22.8768
74 95.2343 -9.30123 -20.1842
74 97.6464 -7.78726 -19.8003
74 94.6506 -8.99712 -17.0935
74 94.1137 -8.62984 -13.971
0 95.8078 -5.51549 -8.50366
74 102.977 -4.82437 -19.2573
74 100.639 -3.96148 -18.1496
74 102.405 -4.44784 -16.1223
74 100.112 -3.61595 -15.0416
74 108.416 -2.00419 -18.6282
74 105.934 -1.21012 -17.7639
74 99.653 3.76766 29.4974
74 85.8205 -16.8923 -18.0651
74 91.3786 -14.9909 -23.3958
74 95.6337 -11.4582 -13.4608
74 99.8862 -10.7801 -22.4102
74 101.662 -11.2812 -20.4341
74 99.3382 -10.53 -19.2674
74 101.057 -11.0329 -17.2905
74 98.7104 -10.2744 -16.1876
74 104.603 -7.5742 -18.7558
74 103.954 -7.27063 -15.597
74 109.634 -6.65161 -19.6025
74 103.381 -11.8089 -18.4311
74 105.562 -9.97975 -15.0697
74 102.608 -18.254 -30.8463
0 183.401 59.7375 148.233
74 70.0106 -54.9493 -60.2397
