ITEM: TIME
40.0
ITEM: TIMESTEP
0
ITEM: NUMBER OF ATOMS
444
ITEM: BOX BOUNDS pp pp pp
-237.39 237.39
-237.39 237.39
-237.39 237.39
ITEM: ATOMS type x y z
74 132.567 12.0051 -93.6743
74 112.606 36.8865 -66.3508
74 148.395 53.2639 -75.0969
74 144.55 54.9992 -75.9017
74 146.753 57.0665 -72.8221
0 145.199 34.0969 -77.8183
74 156.7 48.0231 -77.1273
74 155.668 49.0725 -79.8924
74 152.834 49.5686 -78.3798
74 152.709 50.7283 -75.9488
74 152.323 52.0617 -73.6855
74 147.082 53.1473 -70.8674
74 148.329 54.7113 -72.7508
74 78.4968 28.5998 -44.2285
74 154.346 48.4572 -75.6654
74 151.663 48.8827 -74.1919
74 151.218 50.3778 -71.9498
74 151.048 51.8779 -69.7858
74 148.308 52.5168 -68.4282
74 149.851 52.5821 -72.3421
74 146.576 54.6012 -68.7265
0 121.104 70.4651 -49.499
0 148.247 40.2539 -71.4568
74 148.331 48.8786 -66.3544
74 157.646 48.471 -72.328
74 154.976 49.093 -70.6214
74 154.635 50.3529 -68.2688
74 152.132 51.313 -67.1622
74 146.95 51.1469 -66.5939
74 145.326 50.1506 -64.7723
74 143.611 52.6652 -63.8773
0 137.202 68.0647 -56.0699
0 126.321 70.516 -50.079
74 122.591 105.593 -36.2759
74 74.8735 31.3 -35.7307
74 149.416 47.9187 -64.1898
74 156.612 46.9388 -70.3174
74 146.549 48.6702 -62.9813
74 145.259 51.1332 -62.4788
74 143.556 50.2606 -59.8317
0 122.649 65.5255 -44.6711
0 127.369 70.7929 -44.9431
0 138.033 82.9911 -47.2898
74 141.833 -17.8135 -81.3978
74 154.258 49.2747 -62.3681
74 150.527 46.9608 -61.9688
74 150.172 48.0357 -59.58
74 149.056 49.2002 -61.9108
74 147.428 48.5803 -58.1884
74 144.95 48.0422 -59.2868
74 144.698 49.3312 -56.8876
74 149.935 49.1505 -57.2027
74 148.546 51.4299 -57.0325
0 -0.459593 -0.674351 -0.364104
74 150.117 45.4577 -54.9434
74 149.704 50.4222 -54.7096
0 145.51 58.2364 -46.9941
0 136.906 76.0011 -36.4412
0 4.75711 -0.623439 -0.944091
74 29.3866 7.9364 -3.22038
0 76.3175 -1.63093 -31.1051
74 28.3911 10.3839 -3.68772
74 27.2948 8.96216 -5.46181
74 79.7562 37.4218 -15.841
74 78.5427 38.5196 -17.9676
74 127.412 82.6175 -24.8425
0 16.463 -1.52136 0.616313
0 28.1202 0.243965 -2.34629
0 82.0859 3.91329 -26.2412
74 81.2904 35.1054 -15.524
74 122.277 58.7006 -24.0504
0 28.6171 -4.97249 -2.65424
0 132.386 15.9651 -43.4996
0 165.589 27.4773 -54.7998
0 113.901 39.1213 -26.3429
0 131.999 42.6011 -31.6881
0 151.545 46.4677 -41.2515
74 120.893 57.0107 -22.3618
0 28.8898 -8.91234 -0.546706
0 79.4142 1.86288 -20.2205
0 80.9717 23.6693 -12.9351
0 132.217 27.9515 -35.3323
0 148.867 31.0443 -36.4594
0 93.8953 11.0619 -14.4061
0 85.2373 18.1169 -9.60494
0 116.44 23.7488 -22.1309
0 133.762 23.0119 -30.5044
0 134.762 25.952 -29.8916
0 126.601 27.7905 -25.3984
0 109.334 39.2372 -11.2731
0 156.804 30.4824 -38.5372
0 137.537 36.0489 -25.6376
0 121.439 38.4494 -19.0667
0 144.202 36.4867 -30.4357
0 131.6 42.491 -22.3342
74 84.4828 -43.388 -27.3894
74 23.1553 -4.81619 17.5745
74 20.4822 -4.03243 17.3859
0 59.966 -7.33027 -1.61115
0 89.4482 1.85466 -12.0265
0 82.7897 14.7899 -5.99968
0 110.272 18.0946 -17.6407
0 125.65 22.1872 -21.4882
0 138.755 24.3394 -28.6689
0 136.034 24.9522 -27.1712
0 147.971 36.1507 -26.7975
0 145.25 36.7636 -25.2998
0 163.796 37.6901 -35.476
0 156.689 53.1785 -24.6182
0 53.7982 -12.9845 2.879
0 98.385 4.23283 -13.4914
0 117.761 20.0858 -14.8875
0 129.146 25.791 -19.9576
0 151.685 25.105 -28.9112
0 146.244 26.3307 -25.9157
0 147.244 29.2708 -25.3029
0 134.423 49.9247 -13.5571
0 145.796 28.8839 -21.0847
0 140.355 30.1095 -18.0893
0 149.74 29.9345 -24.3851
0 133.194 34.8882 -12.9832
0 143.578 37.6533 -18.6662
0 144.354 41.87 -15.6379
0 112.532 -6.7111 -16.765
0 110.867 7.55161 -8.90266
0 80.9424 14.2929 7.5724
0 113.866 16.3719 -7.06412
0 141.349 19.6766 -18.7052
0 130.691 20.8514 -15.1297
0 142.348 22.6167 -18.0923
0 137.132 22.5658 -17.5123
0 136.908 23.8424 -15.0969
0 143.348 25.5568 -17.4795
0 132.467 28.0082 -11.4886
0 118.865 31.0724 -3.99989
0 142.627 32.0499 -14.7561
0 140.131 31.3861 -15.6738
0 139.907 32.6627 -13.2583
0 163.669 33.6402 -24.0145
0 148.85 48.4139 -13.4945
0 151.849 57.2342 -11.6559
74 180.696 58.5851 -22.2571
74 50.0758 -15.0005 15.6398
74 63.2005 -12.9929 8.39695
74 63.1006 -8.99163 10.0339
0 111.139 3.61176 -6.79512
0 112.139 6.55186 -6.18228
0 118.804 6.98968 -10.9804
0 116.083 7.60252 -9.48264
0 125.299 19.4139 -7.61125
0 134.46 20.5154 -11.4916
0 131.74 21.1283 -9.99387
0 136.683 25.119 -12.6814
0 128.298 28.2342 -5.77271
0 148.341 26.8844 -15.644
0 140.404 27.4463 -13.5663
0 146.844 29.1607 -15.9489
0 135.242 38.1051 -7.23454
74 47.9828 -30.6733 11.1177
0 119.797 -3.44323 -11.5963
0 124.572 12.5339 -6.11656
0 136.677 11.746 -13.9101
0 134.957 15.299 -11.7995
0 132.012 17.1884 -7.88633
0 129.516 16.5247 -8.80408
0 154.775 15.2258 -19.2553
0 149.558 15.1749 -18.6754
0 139.453 21.8429 -9.65611
0 136.732 22.4558 -8.15837
0 131.515 22.4049 -7.57839
0 143.397 22.8936 -12.9565
0 140.452 24.783 -9.04326
0 149.613 25.8846 -12.9236
0 144.396 25.8337 -12.3436
0 144.172 27.1103 -9.92815
0 141.452 27.7231 -8.43042
0 156.054 27.599 -15.3062
0 159.998 28.6497 -18.6066
74 115.515 53.6887 12.1369
74 176.559 45.6227 -17.3158
0 158.835 51.069 -9.82348
0 100.749 -12.5263 -2.34088
0 107.965 -6.59521 -1.69517
0 106.468 -4.31886 -2.00007
0 107.244 -0.102152 1.02825
0 118.628 5.60303 -4.04189
0 119.404 9.81973 -1.01356
74 175.317 0.850023 -31.0634
0 125.845 11.5341 -3.39618
0 129.565 13.8614 -4.28107
0 129.068 19.0779 -3.97312
0 150.886 24.8849 -10.2032
0 145.445 26.1106 -7.20777
0 132.067 27.8982 -2.13459
0 149.389 27.1612 -10.5081
0 153.164 40.1982 -5.64127
0 152.667 45.4147 -5.33333
74 178.848 47.4792 -14.1794
0 90.1398 -14.0148 5.75758
0 87.4194 -13.402 7.25531
0 112.957 -5.26769 0.140317
0 110.237 -4.65485 1.63805
0 108.74 -2.3785 1.33315
0 120.398 -0.613172 -1.62946
0 112.236 1.22536 2.86374
0 123.621 6.93054 -2.2064
0 119.18 11.0963 1.40191
0 116.46 11.7092 2.89965
0 138.998 11.0231 -6.05389
0 133.782 10.9722 -5.4739
0 133.558 12.2488 -3.05842
0 117.235 15.9259 5.92797
0 126.62 15.7509 -0.36786
0 146.663 14.401 -10.2391
0 146.439 15.6776 -7.82366
74 163.764 15.4543 -15.0811
0 147.662 17.3412 -9.62629
0 139.501 19.1797 -5.1331
74 182.084 14.4278 -23.8102
74 176.878 15.5302 -21.0543
74 174.006 16.1422 -19.8064
74 178.073 17.1389 -22.854
74 173.272 17.2511 -22.2315
0 133.34 26.8984 0.58579
0 150.662 26.1615 -7.78776
0 145.276 38.0969 0.959453
0 102.294 -17.4659 2.48703
0 105.79 -13.8621 4.01762
0 107.014 -12.1986 2.21499
0 113.23 -9.20754 2.24785
0 122.391 -8.10597 -1.6325
0 111.734 -6.9312 1.94295
0 111.509 -5.6546 4.35843
0 110.013 -3.37825 4.05353
0 107.293 -2.7654 5.55126
0 121.894 -2.88952 -1.32456
0 117.229 2.55287 4.69923
0 122.949 10.7603 5.04004
0 129.613 11.1982 0.24194
0 129.389 12.4748 2.65742
0 124.173 12.4238 3.2374
74 177.357 11.2122 -19.1311
74 170.076 13.0507 -15.1386
74 167.711 13.8171 -13.7612
74 165.128 13.2126 -14.6154
74 176.104 12.6765 -22.0861
74 173.546 13.0979 -20.8128
74 173.799 15.1244 -16.033
74 171.265 14.688 -16.9514
74 168.914 15.4334 -15.6045
74 166.253 14.8501 -16.4134
74 108.252 30.7808 18.4284
74 179.698 15.0262 -22.3886
0 151.934 25.1617 -5.06738
0 149.214 25.7746 -3.56965
0 156.654 30.4291 -5.33942
74 211.843 28.2875 -32.6574
0 147.051 45.2537 4.60062
0 113.006 -7.93094 4.66333
0 130.328 -8.66791 -3.71022
0 124.663 -6.16562 1.70072
0 119.447 -6.21653 2.28071
0 97.6835 -1.31377 14.2626
0 118.726 0.276526 5.00413
0 128.886 4.3182 1.73663
0 141.543 9.02363 -0.613134
74 165.264 10.6344 -10.1548
0 140.822 15.5167 2.11029
74 181.049 10.0454 -17.6967
74 176.484 9.36528 -17.1486
74 173.999 10.0667 -16.018
74 171.393 11.9587 -12.4091
74 168.885 11.4493 -13.3361
74 166.413 10.9016 -14.2677
74 163.57 14.0288 -8.00088
74 158.489 12.9111 -9.67083
74 184.824 11.3859 -21.1277
74 182.251 11.6705 -19.4318
74 175.964 14.1431 -17.0655
74 172.587 13.5362 -14.2309
74 161.996 16.298 -8.4394
0 143.325 29.5535 4.25677
74 82.0307 -46.9639 9.48792
0 109.722 -39.5574 -1.74022
0 104.057 -37.0551 3.67073
0 86.293 -20.392 18.104
0 112.055 -13.5343 8.57349
0 108.838 -7.705 10.3792
0 125.439 -1.94891 4.72904
0 122.495 -0.0594655 8.64225
0 138.096 2.75652 2.37928
0 130.159 3.31845 4.457
0 121.998 5.15699 8.9502
74 191.436 -4.98905 -26.5267
0 134.879 8.58582 4.18496
74 176.801 5.5276 -15.0895
74 174.001 6.08893 -13.6407
74 168.983 8.74127 -8.81275
74 166.688 9.58105 -7.49647
74 163.987 10.215 -5.93793
74 161.231 10.7031 -4.38285
74 158.713 10.2481 -5.26401
74 180.475 7.62954 -15.8029
74 178.032 7.1674 -16.8003
74 176.208 10.2531 -14.4876
74 172.466 9.42836 -11.7437
74 170.175 10.3411 -10.5799
74 167.855 11.2159 -9.26883
74 162.42 12.3908 -6.19431
74 159.889 11.7856 -7.05411
74 156.608 15.0319 -0.989038
0 153.976 15.0057 -0.547416
74 174.384 13.2728 -12.1937
74 160.547 15.9958 -4.1899
0 124.93 -23.4785 2.57952
0 130.65 -15.271 2.92032
0 127.208 -8.16511 7.14148
0 134.649 -3.51059 5.3717
0 143.809 -2.40902 1.49135
74 152.191 5.77743 1.48322
74 171.546 2.87788 -10.2114
74 166.702 5.47673 -5.296
74 164.183 4.96711 -6.16663
74 161.718 5.71921 -4.76548
74 158.99 6.46883 -3.23777
74 150.525 9.28202 3.37496
74 181.709 6.29492 -13.0517
74 178.963 6.85814 -11.5331
74 176.215 7.33877 -9.98429
74 172.772 4.48811 -11.9296
74 170.767 8.29512 -6.75924
74 167.628 5.78774 -9.33653
74 165.287 6.61811 -7.95513
74 162.931 7.34632 -6.5428
74 160.251 8.04724 -5.00688
74 156.857 11.0679 1.18367
74 154.658 9.06674 -2.00538
74 182.08 5.57766 -15.5851
74 180.237 8.46081 -13.2976
74 177.433 8.99654 -11.746
74 171.954 9.98176 -8.56059
0 167.354 13.218 -5.6206
0 116.545 -20.3633 9.48819
0 111.88 -14.9209 15.512
0 115.824 -13.8703 12.2116
74 104.653 -7.41276 20.7328
74 102.944 -4.00101 22.8024
0 129.481 -6.22475 10.4747
0 130.48 -3.28465 11.0875
0 125.264 -3.33556 11.6675
0 140.865 -0.519574 5.40456
74 168.205 -2.29433 -5.14675
0 130.983 4.87191 12.0083
74 172.91 1.36769 -7.1569
74 170.16 1.37296 -5.3368
74 167.083 0.290498 -5.47189
74 164.347 0.973311 -3.98694
74 161.945 1.78822 -2.60673
74 159.347 2.54765 -1.15799
74 156.544 3.23204 0.317327
74 153.834 3.72114 1.91367
74 151.008 4.33832 3.43933
74 178.349 0.673605 -10.3129
74 175.596 1.03723 -8.79252
74 171.293 3.45655 -7.41448
74 167.944 3.00724 -4.89167
74 165.69 3.91009 -3.52517
74 163.073 4.65277 -2.06867
74 160.303 5.23147 -0.528212
74 157.549 5.80703 1.00823
74 154.774 6.35276 2.50818
74 182.484 1.7752 -13.5801
74 181.974 2.65418 -11.0683
74 179.602 2.21667 -12.0941
74 176.748 2.72532 -10.6233
74 174.015 3.15498 -9.03169
74 169.016 4.6245 -6.60137
74 156.014 7.99756 0.757887
74 152.939 9.95241 4.4275
0 123.537 -13.1556 12.5494
0 120.816 -12.5428 14.0471
74 106.862 -5.62345 24.2288
0 128.033 -6.61166 14.6928
74 167.104 -3.89445 -3.38811
74 164.607 -1.6159 0.363422
74 161.916 -0.779015 1.69339
74 159.374 -0.18515 3.29569
74 156.582 0.35505 4.8142
74 154.096 -0.10932 3.79804
74 165.785 -0.0852807 -1.41168
74 163.317 0.748006 0.0205085
74 160.57 1.46041 1.50976
74 157.822 1.96364 3.0298
74 155.071 2.53447 4.52026
74 152.241 3.02276 6.04273
74 184.207 1.32901 -11.4941
74 180.796 1.02437 -9.23349
0 164.955 7.22779 2.50767
0 157.576 26.656 11.2579
0 105.93 -35.2248 16.3579
0 127.306 -13.4916 16.1875
0 121.865 -12.2659 19.183
74 150.509 -6.23247 6.96513
74 167.288 -6.17218 0.849864
74 164.603 -5.4155 2.39969
74 162.198 -4.74856 3.85457
74 159.469 -3.97694 5.21939
74 156.811 -3.4752 6.8522
74 154.281 -3.85295 5.95559
74 148.584 -1.76251 11.317
0 135.249 -0.680536 15.3385
74 165.994 -3.86716 0.630525
74 163.192 -3.09342 2.05088
74 160.87 -2.42309 3.53005
74 158.091 -1.79144 5.07595
74 155.339 -1.28549 6.59345
74 152.564 -0.590896 8.07407
0 171.892 3.72575 -0.18289
0 144.404 -12.952 10.2294
74 153.501 -10.7418 7.72215
74 157.078 -8.51031 6.67118
74 154.35 -6.96558 10.1884
74 152.089 -8.51182 7.08955
74 168.79 -8.41198 1.01153
74 166.017 -7.74151 2.65449
74 163.297 -5.60887 6.38067
74 160.746 -6.24106 5.59162
74 158.393 -5.63031 7.02968
74 155.614 -5.18101 8.59543
74 153.045 -5.50628 7.64933
74 151.094 -1.13082 12.3304
0 194.704 -0.900151 -7.02889
74 167.446 -8.61533 5.30901
74 164.692 -7.93227 6.6769
74 162.328 -7.37641 8.14004
74 159.684 -6.6613 9.65691
0 188.64 1.49209 7.73601
0 182.696 -5.43878 9.81069
0 159.703 -15.5725 22.3664
74 227.105 -20.0972 -11.9108
74 189.922 3.70594 14.614
74 179.404 14.2153 24.9374
74 187.54 2.10247 20.3004
74 160.883 -18.6157 30.5998
