ITEM: TIME
40.0
ITEM: TIMESTEP
0
ITEM: NUMBER OF ATOMS
298
ITEM: BOX BOUNDS pp pp pp
-237.39 237.39
-237.39 237.39
-237.39 237.39
ITEM: ATOMS type x y z
74 -70.6639 82.9392 18.6304
74 -22.5256 -41.639 21.5487
74 -20.2047 -38.6578 23.631
0 -19.574 -25.0357 24.7258
0 -8.12109 -27.5157 11.6581
0 9.71101 16.0474 17.8695
74 3.95709 26.4699 3.05812
74 43.4709 5.96659 41.447
74 31.4244 8.20327 28.4956
74 -4.92824 -22.7687 -11.6601
74 45.3537 2.69416 39.3135
74 31.4939 7.87406 24.2064
74 45.5393 5.95398 39.1375
74 47.4485 2.66302 36.987
74 11.7549 0.30702 -7.35438
74 9.80652 3.40028 -9.54079
74 20.525 -1.45369 -0.587094
74 39.4959 4.33181 18.8677
74 41.8659 7.39389 21.0974
74 20.8063 -0.191895 -7.06372
0 31.5707 -1.24597 5.425
74 23.132 2.71093 -4.84308
0 27.588 6.84032 2.89167
0 19.4056 16.5906 -6.51343
0 33.3567 -10.8958 3.45473
0 29.374 -2.80954 0.921396
74 19.1017 47.2749 -15.1939
0 32.8341 17.5098 -3.92743
0 53.0696 29.5419 16.5078
74 21.4884 50.2037 -17.249
0 31.4522 -9.40158 -5.58998
0 38.4566 -1.75527 -1.09382
0 34.2805 1.53987 -5.76259
74 21.5576 50.3354 -21.6709
0 -3.92924 -63.8421 -45.6272
74 -10.8798 -31.3495 -56.3917
0 29.5714 -6.2762 -12.4317
0 38.9186 4.46258 -5.70247
74 50.8022 4.74387 7.98217
74 49.2314 8.18931 5.71214
74 55.8912 12.5081 14.7025
74 30.8974 57.7221 -19.4296
74 3.63877 -69.8844 -40.7751
0 -1.63391 -64.0119 -47.8001
0 44.7346 -10.0113 -0.733426
74 53.0025 3.29398 3.593
74 55.379 6.20425 5.77469
74 55.1679 4.77319 8.06703
74 57.5664 6.01068 8.01012
74 47.3678 9.69985 1.26585
74 49.1709 9.6388 3.492
74 57.4566 7.75549 10.2247
74 59.5239 7.57741 12.2655
74 57.6355 11.003 10.2393
0 61.6192 19.485 12.4923
74 9.85693 -71.3374 -40.5902
74 -1.22483 -42.6824 -53.3695
74 -0.249822 -44.089 -51.3035
0 47.03 -10.1811 -2.90636
0 34.1621 -6.61573 -16.7776
0 34.5016 -0.295675 -16.9127
0 41.1665 1.03057 -12.2814
0 43.3631 2.59413 -7.7778
74 51.0931 7.90238 -0.789644
74 53.4212 10.6883 1.4382
74 53.4887 9.25478 3.8584
74 57.7167 7.62727 5.81578
74 59.6505 7.68421 7.96532
74 53.7332 12.4001 3.70695
0 6.96309 -70.8066 -47.4097
0 -3.36861 -59.3576 -56.9124
74 1.8401 -41.4847 -55.8923
74 3.83223 -41.9881 -54.1191
74 1.826 -40.0926 -53.5544
0 15.5428 -31.4577 -39.1155
0 38.6067 -8.48418 -18.8529
0 43.3158 -0.668107 -12.1838
0 47.6616 -0.803218 -7.58258
0 62.0574 24.0717 5.68062
74 20.7669 -59.3156 -37.3581
0 7.95801 -53.4775 -50.018
0 20.3269 -27.0061 -41.3259
0 38.2434 -16.4354 -20.9208
0 56.1363 -7.49571 -2.71858
0 41.0954 -3.86279 -18.8904
0 45.5874 -2.46899 -16.5597
0 47.9301 0.62348 -14.3267
0 52.4695 5.27952 -7.59002
0 47.8827 -2.63876 -18.7327
0 48.0762 2.15239 -16.5972
0 4.19644 -47.2268 -63.7014
0 11.3706 -36.4204 -59.2728
0 47.4958 -12.2211 -23.0035
0 45.6861 -4.20233 -23.2363
0 46.0256 2.11773 -23.3714
0 52.5445 1.91507 -16.4696
74 8.65102 -70.601 -65.2173
0 5.81269 -60.0366 -65.6041
0 8.49494 -50.6241 -63.5062
0 49.8148 -10.7597 -22.9735
0 43.9751 2.08308 -30.1455
0 67.8774 1.33997 -4.83885
0 11.2759 -42.9449 -68.0848
74 41.7184 -21.197 -38.5749
74 41.8331 -18.0196 -38.7259
74 41.9351 -19.4661 -36.4093
0 55.1082 3.172 -25.3866
0 59.6476 7.82804 -18.6499
74 5.39878 -31.0777 -76.557
74 41.9832 -23.8987 -38.6214
0 39.5108 -5.93742 -45.7617
0 87.3732 35.3554 3.8758
0 109.249 36.2088 24.6113
0 98.5774 41.3377 15.2437
74 94.2629 35.6619 5.17997
74 96.53 40.2731 5.2396
0 128.951 37.1297 43.0462
74 93.9603 43.3386 3.18456
0 121.254 54.729 31.2355
0 135.083 27.3447 45.6772
74 94.2251 34.1831 2.78196
74 96.3858 37.3826 0.870489
74 96.6145 38.9831 2.93913
74 98.6645 40.8914 3.68933
74 160.252 5.18736 65.947
74 99.3026 32.5121 0.194596
0 124.657 32.2692 27.3625
74 96.0858 35.5546 -1.18841
74 99.0829 35.1201 -0.132631
0 118.308 35.6319 20.3931
74 98.8771 39.331 1.50392
74 101.281 38.1596 2.00452
0 120.65 38.7244 22.6262
74 100.895 42.4124 3.73403
74 103.097 43.7976 3.81068
0 125.336 44.9094 27.0923
0 125.505 48.0694 27.0247
0 132.048 49.4978 36.1295
74 101.623 32.2517 -2.15642
0 122.46 30.7057 22.8589
0 127.122 35.2595 25.122
74 100.764 39.1076 -0.525964
74 103.04 40.5825 -0.497699
0 124.972 36.9582 25.0244
74 103.623 39.6659 1.98136
74 105.629 43.7573 1.58317
0 118.623 40.3209 18.055
0 122.969 40.1858 22.6562
0 125.288 41.6471 22.6863
0 127.315 40.0507 27.2574
0 133.98 41.3769 31.8887
74 105.372 45.0837 3.86676
0 123.139 43.3458 22.5887
0 127.655 46.3707 27.1223
74 30.4789 -65.6633 -74.6943
0 128.931 27.2408 25.3547
0 133.423 28.6346 27.6854
74 101.985 32.0535 -6.77123
0 124.901 32.0648 18.4154
0 129.101 30.4008 25.2872
74 100.068 35.3893 -4.84703
74 102.399 36.7806 -4.85903
74 104.102 33.5756 -2.07061
74 104.568 36.859 -2.47529
74 106.795 38.3401 -2.46559
0 123.068 38.4524 15.9797
0 142.624 37.8444 36.6851
74 104.649 41.2413 -5.01766
74 106.805 41.2393 -2.52943
74 105.285 42.1033 -0.5176
74 107.601 43.5109 -0.367629
0 125.58 44.7049 18.1452
0 129.95 46.2009 24.9494
0 138.788 47.4596 31.8813
0 138.061 31.5573 27.7455
74 104.332 33.498 -6.65903
0 129.539 34.9875 18.4755
0 144.75 34.5146 34.5797
74 106.775 37.9574 -6.81299
74 106.641 36.5104 -4.47459
0 133.909 36.4835 25.2797
0 140.574 37.8098 29.911
0 149.266 37.5396 39.1134
74 105.021 44.446 -5.34521
74 107.285 45.8872 -5.13277
74 107.124 44.4173 -2.89861
74 109.416 45.848 -2.81267
0 147.286 42.3983 38.9482
0 136.591 45.8961 27.3777
0 112.109 32.2657 -4.33534
0 140.357 31.3875 25.5725
74 106.857 34.8638 -11.2363
74 108.832 33.2584 -6.39522
0 138.354 34.6151 23.2044
0 138.207 33.0862 25.4749
74 106.754 36.4535 -8.98704
74 106.949 39.3531 -9.28311
0 125.486 38.1805 9.33319
0 134.031 36.3813 20.8062
0 138.377 36.2462 25.4074
74 107.043 41.1022 -7.202
0 138.547 39.4062 25.3398
74 107.13 44.1952 -7.31273
74 109.468 45.4832 -7.28666
74 111.479 45.4444 -4.77923
0 143.063 42.4312 29.8735
74 113.771 46.9491 -4.67136
74 113.698 45.564 -2.3859
0 123.676 46.1992 9.10047
0 143.232 45.5912 29.8059
0 144.17 20.1412 28.1734
74 111.217 34.5476 -10.853
0 133.984 33.1191 16.4002
0 140.503 32.9164 23.302
0 149.341 34.1751 30.2339
74 109.338 39.3238 -11.3234
74 109.247 40.8356 -9.1461
74 113.699 40.6661 -8.9427
0 127.974 42.8018 9.29569
0 132.32 42.6667 13.8969
0 136.812 44.0605 16.2276
0 141.012 42.3965 23.0993
74 113.765 45.5167 -7.02102
74 116.041 47.1467 -6.85187
0 118.872 31.8586 -6.38061
0 136.425 34.4782 11.9567
74 111.222 36.0511 -13.1511
74 113.743 38.973 -11.0894
0 119.066 36.6498 -4.24517
0 140.941 37.5031 16.4903
74 116.032 42.0575 -8.89176
0 134.592 40.8658 9.52097
0 140.965 39.1343 18.6933
0 143.138 39.0667 20.9939
0 145.457 40.5281 21.024
0 106.514 44.9041 -20.4545
74 114.066 45.1977 -11.4198
0 149.826 42.0241 27.8282
74 150.885 15.6705 24.9424
0 138.721 34.3085 9.78375
0 151.758 33.9031 23.5874
74 113.668 37.2588 -13.2156
0 145.409 37.2658 16.618
74 116.018 40.48 -11.1182
0 141.087 39.0321 14.2198
0 143.26 38.9645 16.5204
0 145.433 38.8969 18.821
74 114.041 43.56 -13.6153
74 116.206 45.1763 -13.3414
74 153.301 18.5447 22.7549
74 153.464 21.6587 22.5425
74 118.161 37.1857 -12.9876
74 118.195 38.7778 -15.1931
74 120.431 40.373 -15.2039
74 155.301 18.5435 20.8813
74 158.016 21.7644 22.8341
0 149.854 35.3974 14.5427
74 118.751 40.2004 -17.5564
0 150.17 40.0863 12.2046
0 152.343 40.0188 14.5052
0 154.685 43.1112 16.7382
74 162.349 19.9929 21.158
0 160.308 23.8462 19.5719
74 164.347 18.135 20.8898
74 178.473 -7.86729 30.9979
0 124.462 40.5903 -28.8233
74 116.003 27.2177 -39.9273
0 164.06 47.2233 10.1819
74 173.719 23.8986 16.5515
74 172.076 30.0398 13.9621
74 171.871 27.2211 14.3986
74 174.358 31.699 14.3442
0 164.587 10.5599 2.07556
74 10.9417 27.2091 -160.359
74 174.015 23.9106 12.145
74 176.354 25.2905 12.2731
74 176.163 23.8997 14.628
74 174.262 27.0081 12.2173
74 176.468 28.4741 12.1092
0 166.308 43.7913 3.603
74 198.705 -10.3554 24.9869
0 164.638 5.56432 -9.00696
74 198.803 -7.69618 24.478
74 198.995 -2.65101 24.4196
0 164.76 5.46211 -13.4805
0 189.318 15.728 9.35295
74 187.866 48.1313 6.29736
0 191.613 15.5582 7.18001
0 173.188 -4.49262 -13.0225
74 208.267 0.00576796 22.6871
74 170.087 18.3763 -17.2323
74 202.578 75.7962 3.83663
0 201.317 -13.5264 5.87041
0 204.533 6.9973 9.96867
0 202.119 -0.988535 1.12664
0 202.482 6.96265 3.19452
74 206.779 -14.7552 3.804
0 196.378 10.1209 -12.7219
