ITEM: TIME
40.0
ITEM: TIMESTEP
0
ITEM: NUMBER OF ATOMS
398
ITEM: BOX BOUNDS pp pp pp
-189.912 189.912
-189.912 189.912
-189.912 189.912
ITEM: ATOMS type x y z
74 30.5816 -26.1707 68.2225
74 30.6712 39.7429 23.2749
74 28.3625 -9.96837 33.14
74 27.6845 -5.82181 33.9119
74 17.4331 -7.29711 24.229
74 22.57 -10.4907 28.3773
74 25.0638 -10.4176 27.3752
74 27.5093 -11.0741 29.1932
74 29.8769 -11.3202 30.7407
74 29.7402 -12.2663 33.2839
74 33.305 -9.87912 33.9941
74 32.0634 -12.7878 34.8494
74 26.059 -8.80499 29.1604
74 26.7893 -6.28947 28.83
74 36.433 -9.00534 37.8913
74 22.5867 -10.2594 21.3811
74 22.0255 -11.442 23.7317
74 24.5994 -11.205 23.0671
74 24.5027 -12.1766 25.5309
74 27.6015 -10.1513 26.5971
74 29.1157 -12.2786 26.7853
74 31.376 -12.5921 28.3423
0 -0.765284 0.248935 1.28894
74 28.044 -8.75821 24.2587
74 35.9025 -9.47749 33.5094
74 30.6138 -13.4267 24.2322
74 21.9185 -5.67756 16.3175
74 22.795 -9.18449 18.932
74 25.5189 -8.67041 18.387
74 26.5747 -8.20445 22.1435
74 29.0363 -11.2562 24.3274
74 32.745 -8.7509 24.9669
74 26.8173 -6.73349 19.9411
0 39.8793 7.56712 20.2242
0 18.2489 19.6619 -0.46161
74 27.4709 -14.8982 20.8857
74 32.2226 -14.5345 21.7558
74 31.9718 -15.7024 24.2442
74 35.7323 -12.0588 23.0793
74 35.4325 -13.3205 25.5504
74 67.3522 33.5197 21.9527
74 37.9625 -12.9409 24.6267
0 45.3756 -1.91533 20.5577
0 54.0204 5.27728 22.5049
0 52.6463 7.64789 22.4216
74 56.7559 24.0047 13.5541
74 59.1396 22.3225 17.5902
74 55.6203 27.5287 11.1276
74 58.0467 26.8993 13.1217
74 56.636 28.2088 15.0625
0 42.1427 -1.89734 14.2611
0 38.4749 7.41532 9.01004
0 44.8065 10.0545 9.745
74 59.5927 19.2255 13.8791
74 58.3617 21.6987 13.3599
0 43.4973 -15.7635 18.3
74 21.057 -6.10201 -2.97752
74 24.3228 -5.21731 0.82581
74 27.6552 -4.15345 4.40187
0 52.2654 -2.27288 17.0192
0 54.6825 -2.91698 18.959
0 36.6161 5.0627 2.79685
0 48.7015 1.84224 12.4956
0 52.1616 2.92466 16.2918
0 53.4318 5.75159 15.6477
0 47.4507 10.5108 9.1843
74 23.7408 -5.6299 -3.61097
74 26.3797 -5.12856 -3.91256
74 28.4674 -5.73214 -2.1089
74 30.6922 -7.7107 2.27723
74 29.3777 -5.30785 2.00423
0 62.2648 -8.94639 23.0053
0 46.6155 -1.6108 8.7829
0 56.0566 -5.28759 19.0424
0 43.0515 2.50432 4.25929
0 53.99 2.75488 11.3742
0 56.4071 2.11078 13.314
0 35.9236 10.7346 -4.78792
0 55.033 4.4814 13.2306
0 82.2376 28.8862 18.4282
74 21.8027 -7.79391 -9.41845
74 28.5138 -11.0238 -1.61985
74 20.1508 -6.38002 -7.51098
74 22.6244 -7.24658 -5.46769
74 25.0707 -8.07691 -3.65478
74 27.7042 -7.57674 -4.05039
74 29.7698 -8.1195 -2.01893
74 31.9994 -10.0958 2.11836
74 34.5993 -9.47814 1.72543
74 33.234 -7.097 1.50547
0 48.2167 -2.881 6.36583
0 55.2408 -5.91369 14.6856
0 44.6528 1.23412 1.84223
0 46.8427 -0.510384 6.28244
0 54.0939 -2.44267 12.1017
0 56.511 -3.08676 14.0415
0 40.8616 4.24883 -0.180923
0 48.1129 2.31655 5.63835
0 50.7571 2.77287 5.07765
0 50.5299 1.67245 7.57811
0 49.3831 5.14348 4.99425
0 51.8001 4.49939 6.93401
0 56.8615 4.31161 8.31307
0 66.5299 1.73524 16.0721
0 68.9469 1.09115 18.0119
0 58.255 13.4365 4.44103
0 48.71 22.3108 -6.54595
0 31.031 -22.4638 3.19885
74 28.3003 -10.3163 -8.19723
74 30.6357 -10.9591 -6.26722
74 33.078 -11.6953 -4.36669
74 35.0856 -12.3154 -2.43592
74 24.1128 -8.38555 -7.90482
74 26.5534 -9.12022 -5.94866
74 31.1215 -10.5005 -2.09799
74 33.6991 -11.2477 -0.203717
74 38.6146 -11.3041 1.29124
0 50.8415 -13.9202 9.76056
0 47.0504 -10.9055 7.73741
0 61.6762 -8.47207 16.148
0 51.0882 -1.32426 3.30467
0 55.6952 -3.71286 9.68465
0 58.3395 -3.25654 9.12394
0 52.3584 1.50267 2.66058
0 52.1312 0.402258 5.16104
0 54.7755 0.858579 4.60034
0 59.3825 -1.53002 10.9803
0 51.2115 4.9737 0.0767264
0 53.6286 4.32961 2.01648
0 53.4014 3.22919 4.51694
0 60.6527 1.29691 10.3362
0 63.0698 0.652816 12.276
0 62.1501 5.22426 7.19166
0 64.34 3.47975 11.6319
0 56.169 9.98347 0.728296
0 58.5861 9.33938 2.66805
0 65.8374 7.4071 8.48733
0 57.5626 19.1084 -3.14374
74 30.9796 -14.9967 -7.98697
74 37.7217 -17.1019 -2.33961
74 27.2441 -10.8727 -12.2147
74 29.7642 -11.3231 -10.3948
74 31.7164 -14.5985 -3.87951
74 33.7486 -15.2877 -2.03969
74 36.952 -13.5514 -4.72921
74 38.6698 -16.6393 1.83183
74 41.2812 -16.1171 1.44714
74 37.7162 -11.8144 -2.86885
74 40.0722 -13.7082 1.27904
0 49.0022 -4.77729 -0.40806
0 65.9218 -9.28595 13.1702
0 50.2724 -1.95036 -1.05215
0 50.0452 -3.05078 1.44831
0 52.6895 -2.59446 0.887603
0 59.9407 -4.52674 6.70688
0 51.5426 0.87657 -1.69625
0 51.3154 -0.223845 0.804212
0 53.9597 0.232476 0.243509
0 53.7325 -0.867938 2.74397
0 56.1496 -1.51203 4.68373
0 61.2109 -1.6998 6.06278
0 60.9837 -2.80022 8.56324
0 63.628 -2.3439 8.00254
0 52.8128 3.7035 -2.34034
0 52.5856 2.60309 0.160118
0 55.2299 3.05941 -0.400585
0 55.0027 1.95899 2.09988
0 62.4811 1.12713 5.41869
0 62.2539 0.0267131 7.91915
0 64.8982 0.483034 7.35844
0 84.2349 -4.66971 22.8765
0 51.6659 7.17453 -4.92419
0 53.8558 5.43002 -0.483976
0 63.5241 2.85365 7.27505
0 66.1684 3.30997 6.71435
0 48.102 11.2896 -9.4478
0 51.562 12.3721 -5.65168
0 92.6525 1.42248 27.3242
74 29.9238 -16.758 -9.7851
74 34.8468 -16.88 -8.5103
74 37.26 -17.5785 -6.48299
74 39.5142 -18.351 -4.73281
74 28.6343 -13.1696 -12.1222
74 33.7696 -13.2984 -10.939
74 35.9289 -15.2109 -6.64241
74 40.3585 -16.5398 -2.82493
74 42.9574 -16.0293 -3.35387
0 60.0251 -21.2198 11.3898
74 44.1882 -14.5027 -1.3871
0 51.8736 -3.22056 -3.46922
0 51.6465 -4.32097 -0.968763
0 54.2907 -3.86465 -1.52947
0 54.0635 -4.96507 0.970995
0 59.1249 -5.15284 2.35005
0 61.542 -5.79693 4.28981
0 50.4996 -0.849948 -3.55261
0 52.9167 -1.49404 -1.61286
0 55.3337 -2.13813 0.326901
0 60.3951 -2.32591 1.70596
0 60.1679 -3.42632 4.20642
0 62.8122 -2.97 3.64571
0 62.585 -4.07042 6.14617
0 65.2293 -3.61409 5.58547
0 44.5185 3.90927 -10.016
0 56.604 0.688798 -0.317193
0 61.4381 -0.59939 3.56232
0 64.0824 -0.143069 3.00162
0 63.8552 -1.24348 5.50208
0 66.4995 -0.787162 4.94138
0 45.7887 6.7362 -10.6601
0 62.7083 2.22754 2.91823
0 65.1254 1.58345 4.85798
0 67.7697 2.03977 4.29728
0 70.1868 1.39568 6.23704
0 59.3716 7.44308 -4.10584
0 66.3956 4.41038 4.21389
74 91.4397 2.96216 20.4714
74 34.9085 -22.1081 -7.97304
74 33.98 -17.3682 -12.6285
74 35.9613 -20.4839 -6.05065
74 32.4607 -16.1552 -10.5857
74 42.4809 -16.5958 -7.5345
74 44.2864 -19.6601 -1.25493
0 43.8066 -1.91438 -13.6453
0 50.8306 -4.94708 -5.32559
0 53.4749 -4.49076 -5.88629
0 52.1008 -2.12014 -5.96968
0 54.7451 -1.66382 -6.53038
0 54.5179 -2.76424 -4.02993
0 59.5793 -2.95201 -2.65087
0 61.9964 -3.5961 -0.711113
0 61.7692 -4.69652 1.78935
0 64.4135 -4.2402 1.22864
0 64.1863 -5.34061 3.7291
0 46.347 3.73948 -14.9335
0 56.0153 1.16311 -7.17448
0 58.4324 0.519016 -5.23472
0 60.6223 -1.22549 -0.794504
0 63.0394 -1.86959 1.14525
0 65.6837 -1.41326 0.58455
0 65.4565 -2.51368 3.08501
0 68.1008 -2.05736 2.52431
0 64.5368 2.05776 -1.9993
0 66.7267 0.313253 2.44092
0 69.371 0.769574 1.88021
0 69.1438 -0.330841 4.38067
0 67.9969 3.14018 1.79682
74 91.8641 -1.127 18.9187
0 59.5988 8.54349 -6.6063
74 93.0765 1.74221 18.1184
74 91.725 5.05862 15.5163
74 95.1924 1.33576 20.0329
74 92.9567 7.84251 14.8717
74 94.2088 4.65622 17.4883
74 55.3546 33.4736 -25.5179
74 37.9932 -19.2269 -13.2211
74 39.8109 -22.3317 -6.61183
74 42.6191 -20.5546 -9.33356
74 45.0569 -21.3522 -7.48153
74 38.7241 -18.7237 -9.04452
74 41.1813 -19.4738 -7.1301
74 43.8911 -17.6572 -9.82693
0 60.83 -11.6206 0.660466
0 59.9104 -7.04914 -4.42384
0 62.3274 -7.69323 -2.48409
0 64.7445 -8.33733 -0.54433
0 71.7686 -11.37 7.7754
0 74.1857 -12.0141 9.71516
0 75.6831 -8.08677 6.57061
0 67.2849 -2.68346 -1.83252
0 67.0577 -3.78388 0.667942
0 69.702 -3.32755 0.107239
0 66.1381 0.787565 -4.41637
0 68.3279 -0.956944 0.0238478
0 70.9722 -0.500623 -0.536855
0 73.1621 -2.24513 3.90336
0 78.2235 -2.4329 5.28242
0 60.157 5.54678 -10.8797
0 59.9298 4.44636 -8.37928
0 67.4083 3.6145 -5.06046
74 90.7799 -2.80333 16.9466
74 93.3394 -2.1206 16.3439
74 91.0248 3.26256 13.6167
74 39.0442 -22.8147 -10.7601
74 42.0924 -21.2505 -13.4607
74 44.3266 -21.854 -11.6347
0 65.7486 -29.6018 9.2229
74 47.764 -21.1546 -7.89162
0 58.8673 -8.77566 -6.28021
0 61.5116 -8.31934 -6.84091
0 66.1186 -10.7079 -0.460939
0 60.1376 -5.94872 -6.9243
0 62.5546 -6.59282 -4.98455
0 68.659 -5.05407 -1.74913
0 67.5121 -1.58305 -4.33298
0 69.9292 -2.22714 -2.39322
0 72.5735 -1.77082 -2.95392
0 68.7823 1.24389 -4.97707
0 86.0525 4.1336 2.87282
0 76.4036 18.2055 -8.84164
74 69.1794 -32.3741 7.6629
74 70.5386 -34.7134 8.06719
74 70.3391 -35.4862 10.6377
74 75.0114 -30.6997 10.9385
74 74.9869 -31.9053 13.3059
74 77.5673 -31.3257 12.9028
74 46.9359 -21.4497 -12.1373
74 78.6971 -28.4023 12.1328
74 81.2317 -28.9435 14.0161
0 68.8667 -15.4492 -0.294156
0 38.7148 -4.24901 -26.1551
0 63.009 -4.39199 -9.98547
0 75.2178 -1.3145 -3.51463
0 77.8621 -0.858177 -4.07533
0 76.488 1.51243 -4.15872
0 82.7157 9.34914 -4.15124
74 68.3554 -33.1333 3.62368
74 72.024 -30.8769 4.72153
74 70.7422 -33.6763 5.62807
74 74.4226 -31.3996 6.69209
74 81.4496 -33.2192 12.4182
74 77.8197 -29.2076 7.9641
74 80.2719 -29.8542 9.91055
74 82.6701 -30.3114 11.5734
0 65.7377 -20.6287 -5.86325
0 71.6149 -20.1904 -0.127373
0 70.9419 -3.02302 -11.6676
0 77.9659 -6.05572 -3.34784
0 80.6102 -5.5994 -3.90855
74 68.1467 -32.3536 -3.10987
74 67.8606 -33.712 -0.735532
74 71.3308 -31.5515 0.511298
74 73.5206 -32.2544 2.73777
74 77.2567 -29.938 3.63723
74 83.3427 -34.3462 10.1852
74 75.7375 -26.5586 0.705513
74 80.444 -28.9242 7.3914
0 83.3583 -10.3406 -3.74176
0 73.8133 -1.46629 -14.7287
0 78.4203 -3.85489 -8.34876
74 98.4856 -8.72339 3.5716
74 94.7024 -6.14603 3.26329
74 97.2513 -5.07578 1.14469
74 97.3968 -6.31567 3.52113
74 99.8935 -5.76625 2.87432
74 94.8538 -0.343126 0.621539
74 96.0739 -2.67904 0.947973
74 98.6479 -2.21945 0.366631
74 101.237 -2.97349 2.22449
74 97.4334 0.174863 0.25622
74 99.9796 0.626829 -0.252708
74 102.53 -0.111383 1.57468
74 98.5766 2.82423 -0.287654
74 101.154 3.53566 -0.83106
74 103.783 2.72613 0.916045
0 87.4156 10.7361 -12.1299
74 98.1401 5.89426 0.0135053
74 101.235 6.16286 2.89634
74 103.828 6.6594 2.45864
74 107.322 5.22897 1.90155
74 80.022 -34.5141 4.1617
74 76.6825 -30.5766 -0.272063
74 78.7261 -31.1862 1.53453
0 77.4812 -10.779 -9.47764
74 101.083 -8.16191 3.04823
74 103.652 -7.69794 2.47858
74 99.9034 -4.58174 0.519265
74 102.471 -5.29885 2.3352
74 105.039 -4.78582 1.81218
74 107.598 -5.51151 3.68725
74 101.23 -1.69843 -0.151006
74 103.813 -2.45926 1.69741
74 106.35 -1.90407 1.16174
74 108.92 -2.58591 3.03662
74 102.496 1.17552 -0.809996
74 105.081 0.416771 1.02492
74 107.651 0.961478 0.475426
74 110.049 0.59014 2.02714
74 106.325 3.3017 0.418429
74 100.868 -12.2194 1.55116
74 106.817 -9.75814 2.16748
74 105.064 -6.07716 4.17909
74 110.326 -7.56081 3.51781
74 106.379 -3.15414 3.56858
74 110.118 -4.96081 3.1578
74 112.613 -4.24867 2.70907
74 107.645 -0.281072 2.87528
74 111.308 -1.7804 2.2001
74 108.7 2.91954 1.92809
74 105.607 -12.6465 2.63458
74 108.314 -12.1049 2.21625
74 112.827 -8.32242 5.31653
74 114.119 -5.50023 4.52076
0 111.556 1.77275 -3.86308
0 73.9907 -14.3838 -24.4045
0 82.4083 -8.29158 -19.9568
0 87.9241 -6.27853 -23.5787
74 48.1655 -41.0452 -72.0571
