ITEM: TIME
40.0
ITEM: TIMESTEP
0
ITEM: NUMBER OF ATOMS
162
ITEM: BOX BOUNDS pp pp pp
-189.912 189.912
-189.912 189.912
-189.912 189.912
ITEM: ATOMS type x y z
74 -86.8047 -34.7751 27.6204
0 30.2662 16.1555 -61.2331
74 42.9844 20.8353 -66.753
74 34.4832 12.96 -53.5983
74 60.4066 32.5198 -55.9014
74 6.00983 7.13376 -1.47226
74 34.1826 6.62311 -53.8713
74 35.2452 11.6452 -29.1579
74 35.7903 15.8912 -29.8222
74 58.5671 37.217 6.80179
0 22.5299 0.756825 -8.92185
0 20.4906 1.71069 -3.00493
0 45.0525 6.89165 -30.9358
0 43.3239 10.8655 -18.6251
74 39.6257 19.1137 9.8414
74 29.7226 42.9748 82.4834
0 34.7629 0.727772 -16.5547
74 40.1352 16.5517 8.92297
74 39.0785 17.1979 11.8293
0 49.6189 15.0943 -15.4437
74 43.7886 18.8655 11.4568
0 60.1751 44.9758 34.1794
0 47.7512 2.66838 -25.9381
0 43.4081 7.02268 -12.8964
74 39.6781 15.4777 15.799
74 45.5945 16.436 12.5436
74 46.4691 18.4308 10.921
0 53.209 34.9345 38.4773
0 44.389 47.7135 79.099
74 69.9385 44.2525 26.733
0 73.9619 60.0468 58.5158
0 37.4616 -3.4955 -11.5569
0 45.9762 1.17565 -21.229
0 43.9368 2.12951 -15.3121
74 44.2779 12.6708 15.9533
0 53.3373 10.3941 -13.4044
74 46.056 13.9977 11.509
74 44.9023 14.6946 14.4175
74 43.8606 15.1796 17.0735
0 55.6875 12.4602 -12.9275
74 46.9238 15.9821 9.76447
74 52.4393 37.9629 55.3745
74 53.2946 37.8437 52.6494
0 56.9328 50.7045 77.86
74 4.7656 -32.5855 -11.3637
0 43.3995 -7.75333 -22.3711
0 45.796 -0.220594 -14.2924
0 43.6229 4.80361 6.16278
0 51.0714 4.48511 -8.1526
74 43.5132 10.6721 17.6346
74 46.9137 12.5268 15.3923
0 57.5466 10.1101 -11.9078
74 48.6024 13.853 10.6894
0 55.8181 14.084 0.402961
74 51.8292 33.7409 56.0848
74 56.032 34.7524 50.5267
74 55.0197 35.3152 53.5616
74 57.486 37.2802 53.8625
0 57.5079 51.2779 83.046
0 60.7439 56.9374 95.1028
74 73.9321 66.0819 90.62
74 75.2475 68.7438 94.1534
0 48.6749 -3.04763 -16.2312
0 48.2304 -1.99728 -8.08679
0 44.907 1.8801 1.99645
74 47.7955 8.29105 18.03
0 61.1344 3.78615 -23.1989
74 48.8303 10.2168 16.489
74 47.5334 10.7334 19.2498
74 49.4357 12.1028 14.6428
74 52.8277 31.8328 59.7439
74 52.0493 30.1234 61.7633
74 57.1305 30.7169 53.3914
74 54.3718 33.3235 55.2136
74 53.8467 31.514 57.1058
0 60.4742 38.9139 58.9672
0 55.9509 41.872 78.9455
0 52.9383 48.7693 95.4226
0 57.3278 49.8816 89.9826
0 64.3317 50.6135 83.8117
74 76.0758 64.6599 96.6775
0 24.0612 -34.1653 -33.2454
0 30.3563 -29.9365 -30.0641
0 46.0982 -11.9766 -17.3733
0 48.4947 -4.44387 -9.29465
74 50.4061 8.0215 17.4301
74 56.1149 28.6327 54.9383
74 54.6319 27.2475 59.6569
74 55.373 29.1878 57.9144
74 57.1831 29.3037 60.1231
0 50.0508 36.8204 87.8867
0 63.9282 36.6603 62.2144
0 66.8998 44.7664 75.479
0 70.7142 45.3053 64.8531
0 65.1713 48.7403 87.7898
0 68.9856 49.2792 77.1638
0 67.9659 49.7561 80.1223
74 77.8636 62.1904 97.6547
74 79.7507 63.7119 92.9716
74 78.5591 64.1617 95.9198
74 80.8461 66.263 96.2568
0 24.767 -31.9681 -14.729
0 28.1368 -30.3789 -17.2106
0 53.413 -8.22476 -17.1504
0 50.4436 9.83332 34.7971
74 58.8256 27.0841 60.9404
74 56.2935 29.4435 63.2261
74 61.9918 30.6922 59.7095
74 59.7602 29.0753 59.4018
0 53.685 35.963 84.1973
0 64.3696 41.304 81.9387
0 66.1445 42.7968 77.2296
0 67.7858 48.3598 87.0589
0 65.3019 50.3641 101.12
0 83.2579 48.2962 63.6141
0 75.545 51.0613 79.1373
74 76.8285 59.6767 94.3542
74 80.4741 61.9734 96.9545
0 -1.92708 -47.1284 3.91538
0 58.4672 10.0882 25.6677
74 61.4382 26.4657 60.3364
74 60.444 24.6794 62.1524
74 57.9216 25.2815 62.8338
74 59.7605 25.1903 64.9855
0 59.2248 38.2221 89.1293
0 66.5395 41.9739 89.3522
0 63.925 42.3544 90.0831
0 59.8463 44.2621 101.917
0 72.2595 45.6293 87.3476
0 68.6253 46.4867 91.037
0 83.1242 52.3666 78.1524
74 92.9583 52.8888 63.6908
74 95.4632 54.8869 63.9976
74 82.302 59.5221 97.7341
0 33.4964 -29.516 -5.34202
0 38.3304 -29.4541 -18.9265
0 61.8316 -8.79268 -14.1572
0 39.9738 2.2732 56.1149
0 51.1029 6.5639 45.7118
74 62.3544 24.5348 64.178
74 61.3353 24.9472 67.221
74 59.0468 23.4003 66.9952
74 63.081 24.3882 61.4216
0 68.088 36.6038 83.978
74 94.7177 52.8663 65.7373
74 15.948 -44.6891 3.75734
74 64.0207 22.0285 65.2674
74 15.0341 -46.6041 5.52969
74 72.6341 -13.7855 -18.743
0 51.7623 3.29449 56.6265
0 53.848 7.80722 58.3113
0 36.1023 -44.6725 -15.5477
0 36.1487 -39.2059 -7.94596
74 19.7564 -51.7342 4.6618
0 28.8718 -52.2672 -10.0419
74 69.6797 6.5586 62.9985
0 89.8435 31.6871 82.1086
0 64.3439 -3.02398 53.5146
0 83.5786 -28.4854 -25.5013
74 43.2049 -74.9316 -41.3708
74 101.85 -1.66919 24.6115
74 44.6915 -23.206 84.8992
