ITEM: TIME
40.0
ITEM: TIMESTEP
0
ITEM: NUMBER OF ATOMS
130
ITEM: BOX BOUNDS pp pp pp
-189.912 189.912
-189.912 189.912
-189.912 189.912
ITEM: ATOMS type x y z
74 -28.2006 -20.299 81.8547
74 3.46389 -20.2186 58.3463
74 1.74441 -17.9988 58.175
0 0.473612 -7.63154 49.6126
74 6.65244 -18.4637 56.0028
74 2.61079 -17.0233 55.7121
0 1.85092 0.906037 41.5204
0 5.54305 5.20897 45.4504
74 8.85503 28.3829 32.8764
74 9.85798 -20.3815 52.5831
0 5.69961 3.84025 36.6041
0 3.02242 -4.51001 31.0531
0 3.51758 -10.3643 27.4373
74 4.85796 13.3027 12.497
0 8.3812 -11.4774 20.9
0 32.0133 39.2639 20.263
0 9.99421 -14.4021 16.8506
0 2.13856 -0.0833311 0.904865
0 4.19306 -0.516807 3.27351
0 14.3082 8.09379 6.65071
0 31.1066 17.2109 19.1287
0 15.2993 -13.024 16.7313
0 6.32584 -1.63464 1.21901
0 13.0874 -1.81251 5.89664
74 16.5555 -1.35416 12.2669
74 21.9144 1.87803 14.5834
0 38.4662 18.1556 21.378
0 41.0405 19.529 25.7415
74 44.4023 42.7395 13.1864
74 20.5309 -3.50232 8.4211
74 23.6857 -0.85927 10.5976
74 22.8385 -2.13972 12.8003
74 19.8395 0.676064 10.3054
0 36.6474 7.12672 23.0522
0 34.7741 13.8527 17.448
0 42.9921 12.1187 26.9226
0 36.49 17.9047 14.5862
74 26.0838 -18.0474 17.7397
74 24.6228 -4.98478 8.91401
0 14.3618 -0.251745 -3.38312
74 23.5993 -1.74333 6.17214
0 45.1249 11.0009 24.8681
74 23.7416 -8.54811 4.86878
74 22.4232 -6.29438 4.25184
74 24.137 -6.72898 6.96055
74 25.7793 -2.68876 4.22221
74 22.7773 -4.44456 6.3345
74 22.6664 -12.3541 0.866805
74 25.7252 -9.53827 3.10659
0 6.63896 -4.37209 -16.4735
74 24.5227 -7.22343 2.56518
74 23.1653 -5.04772 1.93582
0 43.0457 3.77321 16.8887
0 44.7616 7.82526 14.027
0 25.8542 16.8964 -8.09813
74 23.7502 -11.1161 -1.49549
0 13.0619 -0.0644295 -17.0263
0 23.6968 10.3531 -11.6543
74 25.1867 -12.3136 -3.48861
0 21.9563 -1.36013 -14.4032
0 24.0108 -1.79361 -12.0346
0 52.0184 1.79315 15.0887
74 32.5745 29.4522 -16.7055
74 29.4403 -13.749 -3.16741
0 46.7669 -7.93057 5.17424
74 51.2752 -9.50118 11.6014
74 53.0745 -7.96052 12.65
74 53.0047 -11.5324 14.6706
74 38.261 76.8845 -48.9051
74 50.4809 -16.5087 10.2271
0 49.576 -8.6102 -3.73171
74 60.0379 3.61078 -5.4344
0 53.7625 -0.752261 -20.7299
0 60.0825 -3.42141 -22.4702
74 70.6601 -12.1249 -15.0079
74 82.9088 -8.23662 -12.2849
74 69.8062 -0.134814 -39.6275
0 83.617 7.2659 -28.2376
0 85.7498 6.14806 -30.2921
0 82.9943 -1.51784 -31.42
74 104.128 -6.7069 -7.60204
0 86.7647 2.10074 -31.9131
0 80.2142 -16.8449 -38.1585
74 76.1956 -11.5392 -53.9323
0 89.2898 -11.8482 -38.771
0 106.142 -11.0766 -36.3269
74 124.52 -18.3347 -19.0322
0 108.353 -12.8788 -42.8045
0 115.948 -23.3964 -36.5123
0 121.018 -10.5559 -40.6745
0 132.794 19.8615 -47.4376
0 109.76 -29.7572 -49.2289
0 141.665 1.49538 -33.1128
74 145.395 17.2127 -38.7409
0 138.28 27.5321 -50.7925
0 140.335 27.0987 -48.4239
0 122.347 -26.75 -42.6758
0 129.755 -1.07366 -46.5174
74 145.651 16.3957 -43.1525
74 148.694 18.8414 -41.2938
0 115.294 12.0543 -75.9871
0 156.172 31.9175 -44.3587
0 123.778 -35.9672 -43.4895
0 124.141 -23.3823 -49.9607
0 128.636 5.40611 -63.3962
0 138.854 20.9935 -58.8315
74 133.201 -12.9213 -54.8291
0 157.06 3.82298 -35.4656
0 156.903 14.601 -43.9317
74 136.114 -43.6608 -35.1811
74 133.349 -13.5233 -59.1502
74 137.275 -14.4108 -54.4936
74 136.893 -9.46435 -55.1911
74 130.547 28.8476 -84.8469
74 136.924 -10.051 -59.6093
0 132.333 -23.3681 -63.4091
0 143.046 -13.6349 -62.4602
0 138.001 -9.40502 -69.9996
74 174.749 13.716 -45.7128
74 177.495 14.1818 -45.5259
74 173.774 16.8535 -48.4322
74 177.783 15.4115 -48.0068
74 179.118 14.109 -43.4444
74 147.87 -44.3209 -54.3512
74 142.837 -46.6779 -60.9822
74 166.924 -26.9539 -63.6022
74 166.985 -27.7417 -67.8731
74 155.412 -28.5624 -91.6638
74 207.851 12.5816 -81.2109
74 187.911 -37.5056 -89.7161
