ITEM: TIME
40.0
ITEM: TIMESTEP
0
ITEM: NUMBER OF ATOMS
172
ITEM: BOX BOUNDS pp pp pp
-189.912 189.912
-189.912 189.912
-189.912 189.912
ITEM: ATOMS type x y z
74 -16.2803 18.6013 14.6241
74 35.974 46.4262 57.1254
74 12.3442 4.3838 20.1502
74 18.1771 0.188195 25.4012
0 5.6825 3.77885 3.9759
74 -12.2251 67.1673 -37.3476
0 12.7861 5.60424 6.49038
0 16.5927 -8.37979 5.88845
0 21.4898 3.6425 7.23392
0 19.5144 -15.5047 6.79172
0 21.877 12.6749 -0.416949
74 37.1763 29.0503 10.2908
0 21.3327 -17.5311 7.11048
0 28.9816 -2.70257 10.5987
74 71.1063 106.488 21.126
74 31.0646 -26.3402 15.3647
74 24.5504 53.1106 -22.3395
74 32.7853 -27.3314 10.1128
0 26.4599 -17.65 0.681638
74 35.7435 -25.0026 7.84892
74 31.9895 9.01089 -6.28343
0 23.7062 13.9494 -18.4633
74 35.2704 12.01 -6.94535
74 32.3305 10.8088 -4.14702
74 34.0951 14.5764 -3.51086
0 24.9803 -18.283 -10.6171
0 30.7021 -10.9098 -4.24201
0 28.058 12.9686 -18.0916
0 48.8119 19.3435 -1.65779
0 25.087 25.6045 -30.8251
0 55.8553 23.3789 7.39155
0 52.6669 17.0513 1.06943
0 32.0355 -28.1495 -11.4318
0 30.5421 19.5252 -29.8688
0 35.1122 20.305 -27.4074
0 60.2673 20.188 1.22846
0 57.6864 -9.75228 6.34742
74 53.6781 40.1877 -19.2121
74 33.6767 -19.133 -23.4494
0 52.3517 -8.09308 -7.67858
74 36.6278 13.3129 -36.959
74 55.8498 15.5679 -17.4882
74 53.7487 17.4002 -17.1794
74 37.855 3.34259 -36.7688
74 55.6557 18.0524 -18.8074
0 53.778 66.8624 -42.2146
74 23.0412 -39.2901 -43.346
0 62.2674 -5.67149 -9.55624
0 55.5964 64.836 -41.8958
74 49.7818 74.097 -51.7666
0 60.9903 78.1696 -42.9058
74 88.7175 -24.774 18.8486
0 51.0865 61.8461 -50.8922
0 55.6566 62.6259 -48.4307
0 63.4308 -12.98 -15.5066
0 64.2546 -0.426209 -18.9781
74 66.8821 47.4258 -31.7552
0 62.9785 66.212 -43.8265
0 69.2129 -7.81685 -15.6663
74 68.4336 43.6786 -33.522
74 67.0782 45.3928 -37.9312
0 63.9721 68.8346 -48.5374
0 63.5356 65.3133 -52.7168
0 68.0128 -26.1021 -22.9091
0 67.7945 -27.8628 -24.9988
0 71.2614 -21.9845 -23.1219
0 69.1151 -13.9977 -30.8258
74 81.7274 79.5116 -55.2212
74 119.626 -23.0474 11.5396
0 105.676 -7.7591 -11.134
74 128.552 -32.7843 17.5207
0 83.5524 -22.4881 -33.5711
74 97.5559 -22.1224 -19.2423
74 81.0561 38.5796 -58.9019
74 91.4696 -31.0455 -27.6259
74 94.163 -28.4409 -25.5585
74 96.2703 -28.5954 -23.1015
74 92.945 -25.2043 -28.0911
74 98.8795 -25.8592 -21.0851
74 97.5778 -33.8713 -27.1833
74 94.4129 -28.8923 -29.7987
74 97.201 -26.1185 -27.8074
74 98.4971 -29.2978 -25.2822
74 100.552 -29.6384 -22.9422
74 99.1515 -26.2575 -25.3923
74 97.8515 -22.959 -28.0894
74 116.071 18.6584 -24.4257
74 99.7567 -25.2154 -32.2005
74 99.4535 -26.7916 -29.8868
0 115.047 -18.3407 -13.9853
74 126.289 -10.9041 -2.81381
0 122.477 -5.27281 -12.5869
74 130.135 -49.839 10.4064
0 109.712 -16.6815 -28.0113
0 100.244 -12.2807 -40.3194
0 115.931 -7.99694 -23.9916
0 119.397 -2.11867 -22.1147
0 98.9843 -45.5587 -32.5262
74 131.868 -44.5725 0.777243
74 131.988 -35.4648 -2.41256
0 95.6251 -24.7524 -46.11
74 134.378 -32.2519 1.46328
74 133.318 -28.5421 -0.543183
0 118.962 -22.8429 -17.793
0 117.749 -10.0234 -23.6729
74 100.418 -54.923 -31.4876
74 128.513 -42.5105 -6.03696
74 128.279 -43.8472 -3.56169
74 134.819 -42.5743 -1.57901
74 129.202 -39.1778 -9.59729
74 129.135 -39.9292 -6.81982
74 133.685 -39.2508 -4.32451
74 130.818 -40.9651 -1.77919
0 120.95 -34.8005 -18.7137
74 128.032 -35.5434 -8.29228
74 129.675 -37.5007 -7.6893
74 129.996 -35.765 -5.76861
74 129.454 -38.1107 -4.6206
74 131.498 -38.2481 -2.14386
74 130.476 -34.4278 -7.92205
74 130.933 -32.6356 -6.13271
74 132.448 -34.7436 -5.36809
74 132.792 -33.0389 -3.45251
0 112.197 -27.3277 -31.2875
74 133.334 -31.571 -5.56169
74 133.258 -30.5915 -2.53844
0 110.875 -23.99 -33.9617
0 140.15 21.4591 -14.182
74 129.454 -37.792 -11.789
0 124.696 -29.3716 -21.2818
74 133.367 -31.4234 -9.30852
0 129.096 -18.6606 -17.5809
0 120.124 -12.9486 -32.2444
0 123.701 -14.7914 -25.0721
0 128.986 -10.9395 -22.8763
0 117.652 -33.4071 -30.3312
0 127.835 -34.7358 -18.2889
0 117.046 -26.9973 -33.2712
0 131.302 -28.8575 -16.4119
0 109.008 -16.4525 -46.1107
0 126.233 3.45706 -33.5202
0 134.489 11.8758 -27.092
0 127.01 -12.8839 -31.8197
0 131.58 -12.104 -29.3582
0 142.089 15.0125 -26.933
0 128.999 -42.0443 -24.2392
0 129.713 -21.7694 -33.0061
0 129.107 -15.3597 -35.9461
0 128.718 -7.18921 -36.7963
0 147.763 10.6939 -23.887
0 153.873 9.89667 -16.6616
0 136.366 24.8422 -41.8093
74 152.051 33.0532 -25.8686
0 128.173 -20.1924 -37.77
74 96.5328 41.7692 -96.9829
0 141.775 -27.3347 -27.1799
0 142.599 -14.7809 -30.6513
0 131.312 -8.3537 -43.2782
74 128.198 9.84095 -56.6267
74 130.207 9.52439 -54.2219
74 130.979 12.5868 -54.6213
74 128.564 10.3932 -52.1571
0 133.409 -10.8295 -47.4046
0 139.846 -0.384288 -41.2952
74 126.785 10.1597 -58.8567
0 157.678 13.1155 -25.7647
74 131.822 13.5972 -61.3089
74 127.363 9.33335 -67.8424
74 131.996 13.147 -65.5811
74 134.789 15.7815 -63.5586
0 141.567 -25.7944 -47.6347
0 146.138 -25.0146 -45.1733
