ITEM: TIME
40.0
ITEM: TIMESTEP
0
ITEM: NUMBER OF ATOMS
186
ITEM: BOX BOUNDS pp pp pp
-189.912 189.912
-189.912 189.912
-189.912 189.912
ITEM: ATOMS type x y z
74 -9.08405 9.49591 1.22051
0 -0.304845 -0.686426 0.127503
74 1.22851 -40.1918 -15.2251
0 38.2747 32.9569 -26.2102
74 4.56474 -41.578 -13.2803
74 5.95431 -37.0693 -17.9047
0 30.5308 18.1323 5.13802
0 39.7566 33.8689 -21.2578
0 41.9792 26.3589 -36.7253
0 38.6383 14.9722 -12.8914
0 35.552 14.4114 -5.28933
74 55.7628 35.7517 -59.807
74 52.4938 36.8038 -57.2053
74 55.3458 35.8002 -56.6426
0 52.3804 37.2873 -37.2979
0 49.4074 39.867 -20.1922
0 36.3354 5.28739 -3.33784
0 45.7879 27.305 -10.7265
74 55.9344 33.6991 -55.167
74 59.391 38.9354 -61.1425
74 56.9862 38.2101 -59.8938
74 58.7033 39.0508 -58.039
74 57.6377 36.4283 -57.9624
74 56.0557 38.5586 -53.6579
74 57.9315 39.5116 -51.9695
74 55.6475 38.7312 -50.6193
74 58.3338 39.2774 -54.8455
74 60.2944 40.2292 -53.0331
74 59.3503 42.489 -49.0444
0 55.0564 42.3395 -14.751
74 69.6958 58.7373 -60.3655
74 12.118 -45.3645 22.7413
0 26.1326 -21.6605 5.68898
0 30.3704 -16.2573 -6.68986
0 33.6315 -4.30964 9.35433
0 45.4906 17.1813 -16.866
0 48.8128 19.6195 -32.4712
0 47.8362 26.164 -4.04816
0 54.2447 29.163 -27.2555
0 58.3691 31.4256 -49.1379
0 54.7591 32.2157 -20.8905
0 52.5884 34.6199 -10.062
0 56.9913 38.0579 -17.5763
74 61.6579 38.0365 -57.3932
74 62.6129 39.2053 -49.528
74 60.385 38.3214 -48.2738
74 62.1579 39.3151 -46.389
0 56.0239 40.1987 -16.1636
0 55.6228 40.2865 -13.025
74 64.3869 43.2403 -60.427
74 63.2775 40.721 -60.4717
74 64.218 43.5841 -57.5954
74 61.8314 42.8643 -56.4318
74 64.7205 41.7335 -55.64
74 62.37 40.9376 -54.4978
74 63.5431 43.6142 -51.5796
0 59.6247 43.8122 -17.4007
0 59.2235 43.9 -14.2621
74 72.2906 57.4382 -56.9456
0 66.208 58.1981 -16.9617
74 73.9699 60.0718 -59.9194
74 43.057 6.86438 -3.44892
74 43.9245 9.74706 -0.294314
0 51.1396 19.6537 -11.4247
0 53.3718 25.4959 -8.11051
0 58.0107 30.8113 -23.628
0 56.8073 31.0746 -14.2121
0 54.5232 30.3383 -12.8873
0 56.4062 31.1624 -11.0735
0 57.9588 35.917 -18.9889
0 59.4407 36.829 -14.0366
0 59.0396 36.9168 -10.898
0 61.5595 39.5306 -20.226
0 60.5921 41.6714 -18.8133
0 62.4751 42.4955 -16.9996
0 56.9821 42.4615 9.43411
74 67.9084 42.3625 -63.2521
0 62.9895 45.5483 -10.6346
0 64.4287 47.1624 -28.0536
0 65.1084 48.2499 -16.824
0 68.0295 50.7759 -29.2906
74 72.5277 66.6066 -9.37762
0 30.9179 -27.2588 3.26481
0 46.0901 1.07402 -11.5503
0 49.9267 6.565 -20.7906
74 44.9672 7.32735 -1.34943
74 46.5662 10.1001 -4.48795
0 52.2204 20.6535 -3.33373
0 58.9781 28.6704 -25.0406
0 60.8611 29.4946 -23.2268
0 56.9726 29.1094 -9.34757
0 59.8937 31.6354 -21.8142
0 58.6903 31.8988 -12.3984
0 64.6978 34.9856 -32.4671
0 59.6059 34.8637 -9.17199
0 63.4425 40.3547 -18.4122
0 65.3255 41.1789 -16.5985
0 62.6403 40.5303 -12.135
0 69.2847 45.4067 -43.3455
0 70.9933 52.5998 -19.3859
0 44.415 -2.4175 13.8718
0 56.2741 19.0734 -12.3484
0 57.1897 22.0384 -9.12204
0 55.9864 22.3017 0.293773
0 59.823 27.7927 -8.94646
0 65.0282 31.0551 -22.7379
0 64.6271 31.1429 -19.5993
0 64.0608 33.1959 -21.3253
0 63.2586 33.3715 -15.0481
0 67.0952 38.8625 -24.2883
0 66.8074 42.0908 -11.6461
0 76.2504 50.7564 -37.8164
0 57.0057 15.0552 -5.75791
0 63.4757 26.3005 -14.8226
0 68.3931 32.7912 -15.9718
0 69.1434 37.7214 -17.61
0 68.8557 40.9497 -4.9678
0 74.8631 44.0365 -25.0365
0 39.6959 -24.9277 23.4753
0 43.4192 -22.5772 4.73151
74 47.659 -17.8381 -16.1743
74 47.4815 -17.683 -13.3854
74 73.3294 46.2161 13.5917
74 49.434 -21.8213 -16.0813
74 50.9759 -19.1235 -18.953
74 50.6344 -18.9131 -15.7444
74 51.344 -16.2539 -12.4048
74 50.0759 -13.981 -8.37741
74 52.3213 -13.0396 -6.58224
0 56.6377 1.08871 0.970364
74 73.7596 44.1789 15.327
74 75.7402 44.964 17.0398
74 77.365 48.0486 14.2192
74 49.4925 -26.9827 -20.7752
74 52.3571 -23.4451 -18.534
74 53.5428 -20.2286 -15.4294
74 45.4698 -18.5135 35.8824
74 54.556 -17.6063 -15.1781
74 53.5136 -15.3816 -10.8354
74 56.4204 -21.8277 -18.2369
74 72.9033 20.5293 4.99365
74 79.3401 39.4737 21.2284
74 79.0215 41.5256 19.394
74 84.175 43.5742 0.833718
74 85.8217 46.2233 -2.35725
74 60.8804 -14.1326 1.309
74 60.8887 -13.8238 4.10151
0 64.6654 -1.51041 22.8191
74 74.3514 16.5044 5.4133
74 80.9547 35.3492 21.4261
74 82.6621 36.2059 23.5149
74 82.5919 38.2398 18.5644
74 82.2715 38.3095 21.7229
74 88.166 45.0928 1.32477
74 60.2002 -23.7834 1.15573
74 63.4508 -20.3096 0.0894959
74 60.3801 -18.8959 2.75009
74 64.3012 -17.4396 3.42223
74 62.1157 -16.1153 -0.208182
74 65.9994 -14.8037 0.293712
0 70.7247 -3.52939 -1.88866
74 86.7538 37.7175 23.8681
0 64.6463 -28.2146 -14.7443
0 65.1608 -25.1618 -8.37928
74 66.2054 -21.7081 0.712168
74 63.415 -20.0755 3.16769
0 66.2511 -10.81 18.4934
74 103.958 60.3947 2.95532
74 66.2425 -21.4978 3.46906
74 63.1982 -21.0336 36.8175
0 72.4145 -5.28483 30.2996
74 96.7057 32.8748 -11.6733
74 65.5591 -20.5782 35.2545
74 66.4061 -17.7628 38.5979
0 78.8231 -2.28582 7.09232
74 93.3596 -26.865 -8.75094
74 94.6454 -23.8198 -8.67252
0 95.2979 -16.3791 -6.36963
74 105.628 2.49813 -11.0598
74 88.0752 -37.1407 6.7124
74 93.3335 -29.6018 -5.37313
0 95.4017 -26.5907 -15.6477
74 95.1075 -25.9227 -6.8668
0 103.405 -19.5392 -24.399
0 108.12 -28.9802 -13.9555
74 110.394 -48.4058 -12.2947
