ITEM: TIME
40.0
ITEM: TIMESTEP
0
ITEM: NUMBER OF ATOMS
198
ITEM: BOX BOUNDS pp pp pp
-189.912 189.912
-189.912 189.912
-189.912 189.912
ITEM: ATOMS type x y z
74 60.4705 25.764 -150
0 65.3955 85.7203 -106.409
74 69.6359 96.7572 -103.971
74 72.5742 74.8961 -115.888
0 65.1124 53.5045 -113.597
0 64.5119 59.1141 -105.959
0 68.2304 45.6553 -109.555
0 66.9084 48.0546 -109.454
0 66.3079 53.6642 -101.815
0 71.6032 49.2581 -101.442
0 69.1925 49.9358 -99.5063
0 74.0209 53.7713 -102.599
0 77.1461 51.113 -97.7781
0 67.9774 50.7731 -85.788
74 42.9675 33.7461 -74.7448
74 40.6035 34.3215 -72.8564
74 38.6546 36.5115 -69.5255
74 98.1873 48.5488 -103.322
74 51.4627 35.743 -75.835
74 49.1415 36.4646 -73.5556
74 45.6058 33.7799 -74.1186
74 46.7665 37.2237 -71.4031
74 43.1756 34.4238 -72.1647
74 43.3233 35.4428 -69.7441
74 40.7705 35.1409 -70.2898
74 41.777 38.5427 -67.3929
74 52.1813 32.7592 -72.2861
74 49.7443 32.9029 -70.7185
74 48.4501 35.9466 -68.2858
74 46.2158 36.5419 -66.6856
74 42.3953 33.9767 -67.7454
74 43.1373 34.7727 -65.1658
74 48.2214 35.0726 -70.7584
74 45.9096 35.7398 -69.2607
74 81.2292 46.4653 -84.3693
74 49.8258 33.6601 -68.1627
74 50.2313 34.1375 -65.5794
74 46.3237 31.8446 -67.1666
74 43.6251 30.6013 -63.3806
74 50.3099 29.5942 -66.3759
74 51.5845 31.8535 -65.3757
74 50.8307 35.4219 -63.3629
0 43.9637 45.6063 -54.3677
0 60.2449 51.663 -59.5035
0 53.0129 53.6961 -53.6948
74 51.3366 26.6532 -65.69
74 52.7355 29.4367 -65.1742
74 52.0597 33.0842 -62.9081
74 54.1371 29.9927 -58.6664
0 59.1349 34.3686 -60.0069
0 62.8818 41.6735 -60.4861
74 57.2559 32.5304 -52.5995
74 54.9117 32.7016 -48.8314
0 55.5305 51.4565 -42.0144
74 57.6478 34.3014 -45.6515
74 55.1527 33.8009 -46.414
0 13.2705 17.0962 -2.3942
74 56.2469 15.4031 -32.1539
74 55.3104 18.7529 -29.4383
74 38.4961 -20.4204 -34.2414
0 -0.61426 -0.0200552 -0.753314
0 40.2686 11.7818 -18.6682
74 58.024 9.20417 -30.7662
74 56.2408 10.0666 -32.7849
74 55.6859 9.88601 -28.528
74 57.8787 14.0839 -29.8008
74 55.3567 14.662 -27.8696
74 56.8108 17.4982 -27.3455
74 54.3916 18.1382 -25.3611
74 58.1672 20.1579 -26.3723
74 36.9449 23.6366 -12.8296
0 8.42788 2.87877 -0.859747
0 36.7623 5.54695 -15.6767
0 34.5993 12.4857 -10.4488
74 32.7461 15.5078 -9.48893
74 58.3164 10.0929 -28.1548
74 60.451 14.2764 -29.1324
74 58.0312 15.0304 -27.28
74 39.5133 19.9012 -10.8231
74 37.2445 20.5413 -8.63631
74 40.7837 21.7151 -12.5339
74 38.5629 22.3407 -10.3462
74 59.8109 19.2893 -24.4359
74 42.0797 25.4584 -9.3053
74 79.1262 30.9606 -30.3451
74 33.4222 10.9633 -7.38925
0 33.7512 11.8343 -6.10196
74 40.0441 14.2604 -8.25579
74 36.0357 12.6221 -10.271
74 32.7355 12.9962 -5.83855
74 38.8685 18.309 -8.71225
0 74.9869 11.7654 -34.9469
74 40.6083 9.74338 -8.59288
74 44.4324 11.6891 -7.63278
0 41.2237 10.8713 -9.39837
74 37.3122 12.4562 -5.174
74 43.8393 13.8029 -6.12156
74 16.0134 27.5344 19.2055
0 32.146 -17.9822 -13.1886
0 44.1083 7.14289 -7.08937
74 42.8148 6.4682 -7.38831
74 44.9622 7.71591 -8.13076
74 43.8373 11.3626 -5.14437
0 40.3756 10.2198 -5.0515
0 44.1154 12.3338 -6.31004
74 20.0744 25.7794 19.6299
74 17.416 25.1244 19.1757
74 17.5131 26.1847 21.6104
0 63.6269 -2.39951 -20.8463
0 36.0282 8.52454 3.06618
74 44.4588 7.31621 -5.57168
74 20.2789 21.6817 21.3285
74 20.0321 26.4792 22.4466
74 14.2016 25.3966 25.2153
74 17.8151 27.1585 24.0669
74 15.5183 28.1623 25.9474
0 44.087 -8.42993 -9.42738
0 57.9646 3.49538 -11.8476
74 22.5164 38.9638 33.7529
0 40.8282 -8.40368 -3.14428
0 43.7341 3.44074 1.50272
0 45.3038 7.30254 4.69269
0 71.828 5.03881 -15.8265
0 50.9519 -8.97423 -5.86464
0 56.0208 -4.06857 -6.44548
0 48.7889 -2.03548 -0.636794
0 67.233 -2.91756 -11.0004
0 50.118 0.756204 0.040899
74 23.1521 -28.2199 6.61748
0 50.5919 -2.2945 4.28612
0 39.8679 3.88567 14.645
0 18.1791 15.1759 32.8504
74 23.3629 -32.2758 8.35303
0 46.838 -14.7904 3.98599
0 43.3458 -10.6433 8.53614
0 36.3615 -2.34914 17.6364
0 37.9383 6.7036 21.6058
0 17.3311 14.5244 37.1972
0 23.4815 15.9607 34.0025
0 25.0512 19.8225 37.1924
0 33.78 -46.828 -1.058
0 44.6678 -13.0425 8.4345
0 56.9687 -10.17 2.04497
0 48.9029 1.59355 13.7592
0 20.2157 10.796 39.5062
0 17.805 11.4737 41.4425
74 14.4901 -36.8566 22.0007
0 43.8127 -18.8849 12.002
0 52.3808 -12.9354 7.65037
0 44.0674 -7.43293 16.073
0 55.2867 -1.09099 12.2974
0 48.0548 0.942106 18.1061
0 30.3464 15.4164 37.5652
0 47.793 -15.7008 13.2558
0 47.2067 0.290662 22.4529
0 36.7232 7.54095 35.324
0 48.6055 -41.0041 5.01223
0 52.8477 -21.177 11.1163
0 49.3555 -17.03 15.6664
0 50.9323 -7.97724 19.6357
0 58.6524 -2.67915 19.6309
0 50.911 -23.5501 17.2977
0 61.8827 -23.4692 10.2305
0 54.4103 -22.5062 13.5269
0 48.748 -16.6113 22.5256
0 57.3091 -15.8527 17.3946
0 67.9422 6.48073 22.8161
0 58.3764 -29.704 13.222
0 48.7338 -26.9932 20.9669
0 50.0629 -24.2015 21.6446
74 34.0418 -39.9469 26.6153
0 49.8082 -35.6535 17.5736
0 55.1247 -24.4868 20.2844
0 52.9546 -22.739 24.7329
0 62.2657 1.99374 30.2561
74 31.9398 -42.608 32.581
74 32.9927 -41.592 28.4774
0 49.2006 -35.2348 24.4328
0 56.6802 -31.0069 21.9157
0 50.7774 -26.1821 28.4021
0 59.3385 -25.4235 23.2711
0 50.7845 -20.9911 29.1814
0 70.5578 -19.0815 19.4955
74 30.8713 -44.2275 34.493
0 51.8518 -34.8424 25.0088
0 49.4412 -34.1647 26.9451
0 57.1613 -28.8666 26.9403
0 68.133 -28.7857 19.873
0 65.7223 -28.108 21.8093
0 60.5482 -14.882 36.6118
0 71.7463 -24.1128 30.4982
74 81.5731 -47.9764 16.3427
74 81.7749 -52.0018 18.2022
74 83.1108 -49.1991 18.8674
74 80.8557 -48.2806 20.4728
74 83.4538 -53.1186 20.2169
74 80.0703 -48.9686 24.7864
74 87.0154 -71.1561 28.787
