ITEM: TIME
40.0
ITEM: TIMESTEP
0
ITEM: NUMBER OF ATOMS
334
ITEM: BOX BOUNDS pp pp pp
-189.912 189.912
-189.912 189.912
-189.912 189.912
ITEM: ATOMS type x y z
74 45.6116 26.5451 -37.8739
0 126.698 14.0921 -44.5147
74 51.9786 30.0674 -11.398
0 121.347 8.74458 -42.8175
74 11.4348 -4.28195 -18.4788
0 23.8982 6.27699 -9.56219
0 17.1491 14.772 -4.07823
0 26.5858 13.6935 -7.23756
0 23.9216 15.7626 -3.21569
0 28.3079 16.0844 -6.08112
0 40.2235 14.7622 -8.09576
74 118.917 7.33065 -34.0737
74 116.544 8.23323 -32.7595
74 113.281 11.6185 -28.8502
74 108.994 11.0686 -28.3776
74 112.09 14.0604 -28.7963
74 109.013 15.1832 -26.6624
74 31.7468 26.1089 4.48075
74 65.8381 19.6748 -6.53838
74 113.194 4.7867 -29.8899
74 70.5046 24.7596 -5.90797
74 121.628 5.4923 -30.4246
74 117.069 5.85499 -30.0909
74 112.468 7.33334 -29.9258
74 113.707 9.93268 -26.1291
74 109.799 8.50958 -28.4782
74 109.581 9.19036 -25.895
74 107.161 9.81328 -26.9129
0 77.0518 24.394 -9.20826
74 72.231 26.1741 -7.43631
74 117.761 10.1707 -29.018
74 106.985 15.6726 -20.1131
0 0.429761 0.451546 -1.55805
74 64.7266 14.6318 -7.74518
74 64.8059 15.4281 -5.17542
74 66.3612 19.0643 -3.95776
74 67.915 20.8145 -5.2836
74 68.0903 21.4724 -2.74233
0 117.045 2.69045 -28.2273
74 71.4899 22.9989 -3.34533
74 120.704 2.63539 -29.0333
74 118.162 3.37861 -30.1805
74 115.9 3.8728 -28.5973
74 116.897 7.11883 -25.0231
74 114.319 8.32569 -23.6061
74 110.34 6.65546 -25.8677
74 110.154 7.40786 -23.2715
74 107.777 7.85564 -24.4379
74 107.542 8.55018 -21.8567
74 106.658 10.2497 -23.8809
0 77.6233 23.5844 -4.05346
74 73.107 24.4088 -4.85613
74 74.5416 27.0114 -3.68164
0 31.01 -10.688 -11.0713
74 65.4427 12.7769 -5.15165
74 67.5204 13.8831 -3.92022
74 69.2544 16.3187 -2.75902
74 69.0989 15.5845 -5.30148
74 73.2574 17.7583 -3.00202
74 68.6833 18.9258 -2.73808
74 119.692 -0.956134 -27.5728
74 117.098 0.15199 -26.1227
74 114.404 1.21269 -24.7055
74 111.717 2.33397 -23.1687
74 109.347 3.3934 -21.7764
74 106.658 4.6703 -20.3782
74 104.066 5.87248 -18.8696
74 74.9878 20.2534 -1.87287
74 72.6055 20.3985 -2.99422
74 118.341 2.00847 -27.7996
74 116.156 2.63657 -26.1801
74 113.504 3.67694 -24.6643
74 110.984 4.87653 -23.2955
74 108.437 6.0121 -21.8208
74 105.744 7.22273 -20.3841
74 104.104 9.92388 -17.1155
74 74.0009 22.7791 -2.2034
74 72.4964 24.4878 2.14248
74 75.3509 25.0624 -1.24423
0 47.1267 -9.86322 -10.7848
0 39.4122 -6.3939 -6.46904
0 36.8407 -5.23746 -5.03045
0 51.513 -9.54134 -13.6502
0 54.108 -1.21221 -8.74232
74 62.1841 8.11953 -2.34452
74 59.7587 8.11301 -3.45974
74 66.4249 9.52828 -2.58802
74 68.1798 12.0922 -1.37304
74 68.0478 11.2376 -3.97148
0 91.7856 4.87225 -12.4499
74 69.9911 14.5136 -0.189226
74 69.8614 13.7122 -2.74894
74 74.0356 15.9412 -0.411567
74 71.633 16.1088 -1.59054
74 119.116 -0.45845 -24.4085
74 115.032 -0.547868 -22.0072
74 112.153 0.811481 -20.8639
0 110.752 1.80283 -21.3518
74 109.96 1.77009 -19.4952
74 107.265 2.88503 -17.8318
74 104.741 4.15914 -16.2756
74 73.5383 19.2561 2.17865
74 73.4237 18.5254 -0.432372
74 116.767 0.752051 -23.5624
74 114.172 1.92629 -22.1779
74 109.034 4.24574 -19.2563
74 106.442 5.41929 -17.8303
74 103.671 6.76165 -16.3392
74 75.4772 21.3924 3.42835
74 75.1614 20.8926 0.822209
74 76.6627 23.0899 1.73112
74 21.3228 -30.0284 -14.8262
0 43.4971 -12.8198 -7.93113
0 22.1683 -0.933584 3.58934
0 52.0845 -10.3509 -8.49543
0 35.8296 9.6206 9.07764
74 65.2376 2.50187 -1.84791
74 62.6378 2.71888 -2.7899
74 63.0047 3.65231 -0.347163
74 60.0619 5.47647 -3.38342
74 60.5236 3.92166 -1.2872
0 69.2827 4.07246 -3.27753
74 65.0598 5.24328 -1.37127
74 67.0897 7.88845 -0.0288815
74 64.6629 7.94545 -1.28849
74 71.1413 9.3166 -0.136723
74 68.7789 9.49402 -1.38053
74 70.6916 12.7212 2.38101
74 68.2668 12.9323 1.15922
74 72.5024 15.0714 3.5604
74 72.3705 14.3253 1.0077
74 114.402 0.221668 -19.4832
74 110.501 0.132895 -16.595
74 108.14 1.14108 -15.2939
74 107.201 2.26702 -13.0619
74 74.1832 16.7072 2.16338
74 118.83 0.226408 -21.9162
74 112.242 1.35283 -18.2407
74 109.671 2.58497 -16.9851
74 107.175 3.6229 -15.3373
74 78.0342 17.6168 2.22998
74 76.0218 19.2742 5.9087
0 29.6507 -21.5489 -8.25288
0 48.5476 -14.2201 -8.22503
0 43.3354 -1.50912 3.58193
74 65.6923 4.48178 3.26731
74 69.9314 5.06273 1.0548
74 65.4161 6.27521 1.26877
74 71.8025 7.5294 2.51126
74 69.4841 7.70318 1.20612
74 71.3989 10.8547 5.00805
74 71.2608 10.1378 2.41808
74 76.9273 13.2681 3.73385
74 73.0793 12.4828 3.60371
0 78.6502 13.3922 2.49293
0 88.0869 12.3138 -0.666404
74 77.6062 21.158 7.23282
0 94.1028 15.9391 0.207887
0 17.3646 -16.5763 4.09488
0 29.3728 -18.8111 -0.503043
0 40.6243 -18.4112 -5.08921
0 42.3465 -16.0203 -3.93277
0 42.2539 -15.1078 -1.34949
0 44.0686 -13.6294 -2.77633
0 42.37 -6.53477 2.41373
74 70.1116 5.90212 3.72041
74 71.3755 11.4779 7.59806
0 96.4656 7.12228 -2.41065
0 76.6972 32.7102 21.7793
0 61.7914 -18.9868 -5.09662
0 90.1719 6.23467 4.4649
0 91.9867 7.71298 3.03806
0 91.8941 8.62556 5.62134
0 86.7511 10.9384 8.49852
0 82.5735 18.277 12.5439
0 89.2065 1.20902 3.2967
0 110.559 -1.19168 -1.87727
0 88.3806 14.2419 12.2382
0 95.1767 24.7181 19.4473
0 117.564 16.9449 6.51172
74 80.3167 -7.66052 6.45079
74 77.7833 -6.44646 7.87627
74 75.2199 -5.29442 9.37804
0 106.172 -1.51356 0.988159
0 112.188 2.1118 1.86245
0 109.524 4.18082 5.88432
0 107.826 11.2755 11.0744
0 121.648 10.5189 5.04962
0 68.9502 -16.9806 6.08728
74 81.7769 -12.8561 6.36525
74 79.2582 -11.6192 7.89135
74 81.0312 -10.2385 6.37349
74 78.5076 -9.08117 7.93336
74 75.9878 -7.89432 9.43148
0 103.3 -7.10494 3.83008
0 93.0136 -2.47919 9.58444
0 90.4421 -1.32275 11.023
0 102.45 -3.55761 6.42511
0 94.7358 -0.0882913 10.7409
0 99.1221 0.233585 7.87546
0 91.4075 3.7029 12.1912
0 111.038 -1.08869 5.86081
0 105.987 0.311604 6.15472
74 82.4683 -15.4476 6.39302
74 79.9695 -14.2085 7.9209
74 77.4741 -11.9376 11.7366
74 75.0605 -10.9868 13.0519
74 76.8298 -9.29328 11.7417
74 74.2276 -9.20638 10.9919
0 103.964 -8.82712 6.40161
0 103.207 -6.19236 6.41336
74 78.9153 -17.1654 11.6895
74 76.3169 -16.9587 10.8583
74 73.822 -16.8473 9.85272
74 83.2157 -17.0568 8.92287
74 80.7612 -15.6735 10.3108
74 78.2261 -14.5319 11.7377
74 75.888 -13.6459 13.2339
74 73.2956 -12.4482 14.721
0 97.7627 -10.6273 10.6939
0 114.065 -11.6277 5.8138
0 101.3 -6.7581 10.4235
0 98.7281 -5.60166 11.8621
0 108.165 -6.68008 8.70274
0 109.038 -0.741847 12.4542
0 132.961 -4.29898 5.84165
74 86.3504 -20.0126 10.0237
74 83.7834 -18.7101 11.5908
74 81.4505 -17.5781 12.7956
74 85.6318 -16.5397 12.6239
0 110.435 -14.5843 8.66748
0 105.385 -13.184 8.96138
0 112.157 -12.1934 9.82392
0 109.586 -11.037 11.2625
0 124.258 -15.3409 2.64272
0 107.887 -3.94234 16.4526
0 114.845 -4.7769 12.1486
0 107.13 -1.30758 16.4643
74 -39.9818 -42.1398 31.8858
74 84.4998 -20.5551 14.0114
0 105.956 -13.9936 14.1162
0 115.393 -15.0721 10.9569
0 112.914 -14.8282 9.81217
0 102.628 -10.2024 15.5665
0 128.134 -29.4272 0.000679834
0 134.058 -24.8893 3.45825
0 126.343 -21.42 7.77402
0 116.057 -16.7942 13.5284
0 117.779 -14.4033 14.6848
0 115.208 -13.2469 16.1234
0 112.636 -12.0905 17.562
0 114.451 -10.6121 16.1352
74 161.927 -6.71248 9.30253
74 159.424 -6.31268 8.11297
74 156.115 -3.1867 9.51916
0 109.856 -18.5944 17.8206
0 138.259 -22.7423 5.75938
0 117.617 -3.09261 26.1979
74 188.164 -18.8085 -5.69235
74 160.061 -8.14727 10.6842
0 106.319 -22.4636 18.091
0 122.528 -22.5515 15.7943
0 112.335 -18.8383 18.9653
0 121.771 -19.9167 15.806
0 128.544 -18.9261 16.6685
0 125.123 -14.2223 20.7022
0 114.837 -9.59657 26.4565
0 168.978 -15.8232 6.35586
0 89.6922 -37.6966 18.0279
0 112.999 -20.5605 21.5369
0 119.771 -19.5699 22.3994
0 117.2 -18.4134 23.838
0 109.578 -15.8567 25.5705
0 119.015 -16.9351 22.4112
0 120.644 -13.6316 26.1509
0 123.926 -36.3939 12.0075
0 111.068 -30.6118 19.2005
0 128.127 -34.2469 14.3087
0 114.512 -25.83 21.5134
0 113.57 -21.37 26.6917
0 108.52 -19.9697 26.9856
0 120.436 -21.292 24.9709
0 122.25 -19.8137 23.5441
0 119.679 -18.6573 24.9827
0 111.732 -32.3339 21.772
0 113.362 -29.0305 25.5117
0 110.033 -25.2393 26.9621
0 127.092 -28.8744 22.0702
0 121.949 -26.5615 24.9474
0 126.335 -26.2397 22.082
0 138.251 -27.5619 20.0674
0 126.359 -16.7541 28.4285
0 145.989 -21.5457 22.0981
0 121.833 -35.1345 21.1842
0 119.261 -33.9781 22.6228
0 118.412 -30.4307 25.2178
0 118.319 -29.5182 27.8011
0 114.991 -25.727 29.2514
0 119.285 -24.4925 28.9693
0 116.621 -22.4235 32.9912
74 49.8915 -98.1627 0.55985
0 115.632 -36.9347 25.4765
0 119.076 -32.1529 27.7893
0 107.616 -40.2132 31.1956
0 106.01 -34.0311 33.8023
0 107.639 -30.7277 37.5421
0 141.093 -36.2758 25.1869
0 130.899 -32.5626 28.358
0 144.537 -31.494 27.4998
0 142.058 -31.2501 26.3551
0 134.344 -27.7808 30.6709
74 36.5148 36.4698 101.722
0 104.079 -44.0824 31.466
0 117.833 -34.4408 34.371
0 125.571 -28.4246 36.4017
0 142.722 -32.9723 28.9266
0 135.008 -29.503 33.2424
0 144.444 -30.5814 30.0831
0 136.637 -26.1995 36.9821
0 151.217 -29.5908 30.9456
74 86.2705 -37.8984 46.8893
0 108.095 -40.1102 38.9336
0 131.262 -41.0326 32.3328
0 123.547 -37.5633 36.6486
0 131.285 -31.5471 38.6793
0 135.603 -20.827 44.7437
0 124.212 -39.2855 39.2201
0 138.791 -42.6768 33.1836
0 129.471 -33.0254 40.1062
0 131.193 -30.6345 41.2626
0 119.64 -37.7822 47.2521
0 121.748 -34.3757 58.7299
74 217.226 -4.56143 60.8605
74 120.326 -54.3189 56.2945
