ITEM: TIME
40.0
ITEM: TIMESTEP
0
ITEM: NUMBER OF ATOMS
196
ITEM: BOX BOUNDS pp pp pp
-189.912 189.912
-189.912 189.912
-189.912 189.912
ITEM: ATOMS type x y z
0 14.9843 45.2011 -68.4675
74 35.1696 48.7381 -80.2805
0 18.9432 39.9838 -76.0372
74 -11.1988 11.5114 -115.302
74 0.250425 11.7057 -112.845
74 8.52378 19.2434 -103.183
0 22.3114 30.563 -75.7242
0 34.6834 28.2572 -86.1951
0 10.7224 24.494 -69.6606
0 22.5552 25.3247 -75.9572
0 10.7371 18.9998 -75.1314
74 28.6659 15.9538 -89.6011
0 29.0847 24.5557 -73.3358
74 50.2161 16.9533 -106.333
0 48.0526 23.3266 -90.3645
74 2.37707 10.4746 -80.3104
74 4.13563 12.2462 -76.7806
0 -0.32751 15.2884 -67.7713
74 5.92878 8.49036 -78.4606
0 32.7483 17.2366 -76.9641
74 29.6843 20.056 -53.3928
74 47.0719 30.3448 -35.8276
0 15.5459 12.9604 -52.5703
0 5.74458 19.7145 -31.9084
74 5.20026 32.1509 8.75252
74 29.0746 17.9318 -54.8938
74 33.0189 19.3064 -50.3612
0 38.9014 18.0143 -55.7513
0 16.7053 3.03885 -75.569
74 27.2699 6.33929 -71.547
0 18.6557 14.2721 -46.5536
74 17.6656 14.3922 -38.9117
74 21.4547 14.5847 -40.9903
74 26.9921 14.3071 -54.7007
74 28.9925 16.048 -50.9524
74 -1.20459 -15.8037 -102.232
74 22.2305 11.7655 -39.8698
74 19.8581 12.8785 -39.5618
74 19.4076 15.7566 -35.524
74 20.1397 7.95312 -39.7575
0 32.335 5.94907 -60.1351
0 21.389 17.1305 -21.9453
0 26.6259 16.8844 -21.6841
0 21.0789 20.523 -12.5332
0 23.1397 17.1194 -9.10944
0 13.1681 1.64068 -15.5687
0 20.7466 5.58697 -10.3543
74 7.44048 15.1847 22.9272
0 24.3807 9.25636 -3.04092
0 30.4522 7.97548 -10.8953
0 30.9766 10.3331 -9.59876
74 -22.0927 -11.602 -18.8236
74 3.03212 12.4534 23.9047
0 20.2221 3.22931 -11.6508
0 18.324 5.04302 -0.65738
74 10.2344 10.9888 23.3739
74 7.89781 12.2504 24.0529
74 11.9704 12.8227 26.9942
0 27.2761 4.81794 -7.73285
0 41.4504 9.84101 -9.07622
0 37.1961 12.9566 2.43482
74 5.50847 5.91373 22.9274
0 20.4659 -2.00898 -11.8837
74 6.0006 8.14981 24.4386
74 11.0273 8.02059 24.4506
74 8.8681 9.39875 25.0955
74 7.78847 10.1595 27.9488
0 25.1636 0.881512 -7.44817
74 13.8658 9.18395 25.0707
0 24.6245 4.01807 -3.27387
0 27.5052 5.07386 -2.49497
0 30.3858 6.12966 -1.71606
0 27.1951 8.46634 6.91722
74 66.6216 17.9826 2.56572
74 3.33288 2.24153 23.1663
74 7.99658 4.78095 22.441
74 8.45385 6.954 23.9403
0 25.9318 -1.99912 -6.38458
0 24.5582 2.17225 5.90536
0 39.3527 0.410369 -14.2624
0 32.9711 5.08373 3.00419
0 38.9615 7.45125 9.79989
74 50.6658 12.609 13.4485
0 20.9387 -6.99135 -6.8788
74 6.30949 3.44865 29.054
0 24.8829 -6.71444 -8.97766
0 27.7636 -5.65864 -8.19876
0 24.5729 -3.32196 0.434526
0 32.2323 -3.02407 -9.00107
0 31.1687 -2.24518 -6.12331
0 31.9222 0.368405 0.411113
0 36.9301 -0.133582 -4.5655
0 44.8186 0.420231 -8.76322
0 43.755 1.19912 -5.88546
0 41.6279 2.75691 -0.129934
0 39.5007 4.3147 5.62559
74 88.7064 22.8846 26.6686
74 90.3438 24.4505 25.0947
74 89.3774 25.0692 28.1025
0 16.699 -9.36999 -0.8386
0 23.524 -8.03728 -2.15855
0 17.1424 -3.36393 15.108
0 21.0867 -3.08702 13.0092
0 27.9927 -5.40272 -2.96087
0 33.9831 -3.03519 3.83483
0 30.7923 -0.698515 12.4681
0 43.2453 -6.65275 -12.6528
0 40.808 -1.70249 2.51488
0 37.3882 0.378266 5.91027
0 54.5912 10.3615 25.2338
0 20.658 -14.5873 -8.40829
0 12.1493 -8.35615 14.6138
0 31.3315 -3.83507 8.29381
0 35.5048 -3.30224 11.4328
0 42.6398 -5.36201 0.700703
0 40.727 1.94591 17.1649
0 54.3769 4.61132 14.525
0 47.8767 -5.60807 0.961973
0 21.2641 -10.1711 21.9554
0 38.6292 -7.48473 11.9788
0 47.0569 -10.0675 3.60678
0 39.3827 -4.87115 18.5132
0 46.4367 -3.28252 22.4312
0 12.9469 -22.2252 4.7357
0 42.0637 -15.0597 3.11256
0 48.0394 -7.19796 15.3791
74 38.8311 -24.4004 -8.52682
74 36.5669 -23.1397 -7.79557
74 36.8474 -22.9173 -2.75802
74 39.7424 -21.8084 -2.17775
74 37.4389 -20.6814 -1.35137
74 36.7901 -28.2547 -8.20529
74 35.7316 -27.4596 -5.21656
74 32.4384 -25.2557 -1.6124
74 32.8277 -25.5355 3.0403
74 38.7009 -26.5349 -4.57553
74 37.6576 -25.5459 -1.79337
74 35.7334 -24.3698 3.66763
74 31.9909 -22.604 2.46842
0 54.1403 -19.4673 -3.41696
74 35.5511 -29.5873 -1.55909
74 31.9243 -27.697 -2.82321
74 30.9667 -27.1079 -0.203443
74 30.0992 -26.31 2.74381
74 34.7133 -26.5077 -2.27833
0 49.4572 -27.852 -13.3234
74 67.8903 -10.3333 27.9409
74 109.548 4.3123 32.2144
74 36.6639 -30.2647 -4.11338
0 52.4049 -19.2435 21.9936
0 64.2377 -18.4127 15.697
74 70.25 -11.6842 27.3573
74 73.0355 -8.5715 29.365
74 77.9975 -10.7678 28.4595
74 75.6537 -9.56961 29.0252
0 75.3546 -1.65444 48.3457
74 71.5703 -12.4292 29.6309
74 72.3841 -14.9817 30.5206
74 74.148 -11.3552 30.4361
74 76.5561 -12.4648 29.945
74 79.1207 -11.4003 30.7982
74 124.423 4.2665 36.2789
74 74.8797 -16.2564 30.1248
74 77.6965 -15.2681 31.0124
74 80.2405 -14.1366 31.7028
74 81.8315 -12.6609 35.4232
74 83.0519 -13.1909 32.5641
74 89.6063 -12.1034 31.3197
74 40.0314 -50.1074 -22.1905
0 63.1225 -24.9739 22.2832
74 87.4087 -18.134 30.3268
74 85.3685 -14.6259 31.9985
74 84.128 -13.9795 34.8815
74 89.3127 -14.2408 35.0651
74 91.7176 -15.5008 29.6339
74 90.4757 -14.8671 32.5701
74 38.0575 -53.9296 -22.0451
0 76.6103 -15.0117 48.9434
74 85.7711 -19.7332 31.8523
74 86.9954 -19.9619 34.283
74 93.528 -20.9041 22.7744
0 83.4352 -13.6789 47.6235
74 93.5836 -19.1502 27.6562
0 92.9265 -17.0406 36.3737
0 87.6085 -13.1461 50.7625
0 86.5449 -12.3672 53.6402
0 83.3542 -10.0305 62.2735
74 59.8799 -46.7829 -8.80859
0 83.8933 -13.1671 58.0992
0 96.4796 -9.72279 58.3371
74 53.1272 -51.5084 -11.5944
0 91.4865 -14.715 57.8429
0 92.24 -12.1014 64.3773
74 58.867 -50.5917 -8.04705
74 61.9047 -48.8767 -2.25053
0 69.8072 -51.1555 26.6176
