ITEM: TIME
40.0
ITEM: TIMESTEP
0
ITEM: NUMBER OF ATOMS
142
ITEM: BOX BOUNDS pp pp pp
-189.912 189.912
-189.912 189.912
-189.912 189.912
ITEM: ATOMS type x y z
0 -1.38926 0.239537 -0.487163
0 10.4308 0.986434 -0.489591
0 32.6814 -2.40008 -12.5187
74 56.5142 -57.15 -39.3141
74 26.375 -23.3793 -10.8251
74 26.9528 -25.5865 -10.0538
74 44.429 -13.2466 -20.1947
0 15.1628 -6.81834 2.13132
0 28.1194 2.74496 -6.16371
74 37.4026 10.0101 -9.51175
74 46.1344 -13.6362 -17.5556
0 11.2053 -11.25 5.63718
74 48.729 -13.7489 -19.4355
0 26.5522 0.738443 0.248019
74 89.6314 32.7434 -33.4752
0 60.9218 -20.0897 -24.4344
74 13.9738 -10.0643 10.8181
0 64.7924 -14.2747 -25.5753
0 69.8444 13.1187 -18.1119
0 24.6756 -9.77291 10.564
74 15.1667 6.46114 19.8975
74 44.1391 -60.9809 -14.5058
74 104.417 2.15985 -37.4574
0 79.4718 -31.9509 -26.3468
74 17.9056 -23.1441 18.4107
0 54.5806 -0.146034 -1.38182
0 76.5085 55.2807 -0.16352
74 75.9314 -56.66 -25.3999
74 70.6424 -19.5807 -12.2783
74 67.4435 -22.2294 -10.8511
74 65.4391 -18.8648 -8.45156
74 68.6985 -16.1676 -9.85619
0 76.2754 18.6991 -7.37097
0 89.8576 72.0724 -1.02183
74 59.2317 -46.5159 -9.27064
74 69.2582 -24.254 -10.4051
74 71.7618 -23.0648 -10.117
74 70.3747 -18.2978 -9.88433
0 83.648 -17.5241 -17.6859
74 71.1573 -15.2275 -9.53926
74 74.3928 1.73648 -5.39775
0 86.3096 7.44423 -13.1284
0 98.4879 29.3509 -13.8443
74 57.7384 -48.6836 -3.12263
74 60.984 -47.2475 -6.80057
74 58.3787 -46.7434 -4.97999
74 64.1068 -44.3563 -8.15045
74 61.4368 -42.9573 -4.37471
74 72.7654 -26.8837 -7.96826
0 66.7444 -4.82564 2.86165
74 75.4446 -1.83338 -3.21621
74 73.7016 1.41408 -1.16783
0 62.4049 10.2076 7.67745
0 76.581 27.3109 2.43077
0 79.7984 30.0476 0.948263
74 60.1842 -47.5463 -2.4079
74 63.2147 -43.6658 -1.88625
74 75.5083 -0.665408 -0.651311
0 64.0552 10.9378 12.6067
0 54.5386 13.9994 17.88
0 104.575 40.3578 -7.3492
0 99.5336 39.6577 -6.06588
0 86.3927 6.16787 -1.78748
0 65.9279 21.5561 15.9967
74 107.481 11.48 -9.67888
0 94.5647 10.988 -2.18828
74 105.713 13.5282 -9.95439
0 80.486 19.1946 9.44005
0 72.102 31.1796 20.1267
0 93.4044 42.7963 6.70086
0 93.9707 47.258 9.40754
74 89.6053 70.5759 18.9292
74 91.5547 73.2689 16.806
74 87.1664 71.3524 18.5043
0 80.7811 1.11312 10.4951
74 111.103 7.25992 -9.23742
74 108.841 7.80302 -7.83836
0 86.6601 28.8181 13.5701
0 93.1818 32.9081 8.24008
0 90.5307 34.6331 12.4293
0 96.3993 35.6447 6.75757
0 97.0525 38.7231 7.09924
0 94.4883 39.0647 8.9234
74 88.6435 72.864 20.955
74 85.6701 72.307 24.4058
74 91.2457 73.8667 21.2255
74 88.8499 74.3857 23.2954
74 92.1983 77.9731 19.3993
74 89.7369 78.4379 21.4478
74 92.9065 81.0274 19.8525
0 70.4861 16.5181 23.3476
0 96.8299 28.8348 8.63845
0 97.3963 33.2965 11.3451
0 100.614 36.0332 9.86263
0 99.4429 41.1482 10.0051
74 89.9588 69.8453 23.2036
74 87.9666 76.393 29.2804
0 97.9139 25.1033 10.861
0 108.132 37.775 9.12016
0 100.44 38.8 14.5927
0 126.822 37.0783 -5.67236
0 108.317 61.7016 13.1368
0 104.779 23.7667 9.77686
0 89.9606 30.2784 23.4285
0 103.435 31.6484 14.6494
0 117.698 47.3684 7.03767
0 94.2619 29.2835 24.1686
0 111.04 32.0068 11.5419
0 100.697 34.7569 21.2036
0 107.132 40.2302 18.2386
0 96.2703 51.1735 28.3844
0 101.868 29.6419 21.0611
0 122.996 44.0253 12.3653
0 118.608 46.4036 13.9902
0 121.603 39.2521 14.047
0 137.419 30.3922 4.98283
0 129.035 42.3772 15.6695
74 144.626 2.58297 -0.229105
0 134.632 20.8456 8.34621
74 98.5314 50.2489 41.0994
0 92.4446 58.1205 46.422
74 94.8185 32.6546 45.0279
74 100.796 52.3551 44.2464
74 103.944 55.1205 42.608
74 101.395 55.5535 44.4952
74 98.288 53.0673 46.0779
74 103.213 54.7786 46.9985
74 103.119 56.4672 49.2202
74 100.548 55.3115 48.813
0 97.2253 62.9707 52.2338
0 93.0939 61.3059 60.4697
74 148.168 15.4485 16.2951
74 149.881 17.4055 15.5449
74 150.675 13.4268 14.172
74 155.787 34.1647 17.8453
74 152.246 39.2554 19.8532
0 97.9129 52.1177 60.7256
74 132.716 39.7233 39.0022
74 158.101 36.4905 20.6589
74 108.933 44.1147 59.8293
74 113.047 42.9491 60.6178
74 103.746 72.3556 76.9662
