ITEM: TIME
40.0
ITEM: TIMESTEP
0
ITEM: NUMBER OF ATOMS
140
ITEM: BOX BOUNDS pp pp pp
-189.912 189.912
-189.912 189.912
-189.912 189.912
ITEM: ATOMS type x y z
0 -0.115358 -0.420859 1.27436
74 43.1726 -74.0967 69.8814
0 8.33224 -7.60318 -3.70956
0 10.2186 -7.83835 -1.17857
0 16.7113 -24.8692 8.23487
0 18.5976 -25.1044 10.7659
74 27.6562 10.9233 10.1863
0 14.7541 -26.4052 3.61281
74 32.5855 11.2607 8.69863
74 29.779 9.20271 10.7163
74 30.8703 13.3117 8.22752
0 42.2374 103.114 -8.79504
0 45.5223 109.035 -6.73437
0 10.0695 -34.3265 -7.48724
0 17.127 -28.8756 -0.364603
0 20.4119 -22.9544 1.69606
0 21.6698 -24.4966 6.55329
74 34.394 9.34404 9.17358
74 35.6284 13.7375 6.59423
74 33.8454 15.7133 6.16291
74 51.7241 59.3122 12.8988
0 45.8683 99.1012 -7.91521
0 19.5708 -29.5749 -2.25093
0 21.4571 -29.8101 0.280056
74 39.1957 9.67805 7.58031
74 38.453 8.22061 9.68729
74 35.1706 10.5795 6.91123
74 36.2176 14.9462 4.24917
0 49.916 86.9259 -6.12516
0 54.3941 116.636 -8.68153
0 23.4132 -24.1178 -4.60759
0 25.3704 -22.5818 0.0144769
0 22.297 -19.0333 -5.28266
74 40.3208 12.3452 2.99323
74 42.2433 12.0295 5.45237
74 40.4332 13.9617 5.21935
0 37.7459 23.3558 -0.981982
0 22.7836 -21.2686 -11.7911
74 56.2787 31.6354 12.9673
0 51.2314 37.1068 6.07983
0 53.817 39.9499 8.37565
0 66.8209 87.1945 5.05295
0 57.6008 97.8401 -10.8385
0 53.899 100.082 -13.8094
0 29.071 -20.667 -6.52434
0 42.4159 -14.6146 5.86503
0 35.153 -2.43305 -5.40433
0 68.4248 75.7185 8.72934
0 71.7097 81.6397 10.79
74 49.3034 105.401 -30.8346
74 24.6551 -60.9908 -3.97928
0 31.2324 -32.6072 -7.26526
74 44.9177 23.2621 -11.4056
0 77.3564 26.73 33.1494
0 71.9848 69.9347 7.51808
0 37.4489 -33.7768 -4.08962
74 43.0129 -25.6573 1.49307
74 41.7154 -22.5289 -1.13411
74 73.341 30.7911 19.5411
0 69.5337 47.6882 7.2779
0 82.2563 79.5357 14.6103
0 66.8894 97.2782 -11.8754
74 44.8773 -22.9333 -1.82517
74 78.6054 39.0945 18.4139
74 78.9765 40.9084 20.4316
74 75.9993 67.9137 3.48046
74 51.7323 -0.276145 -4.99087
74 58.4339 51.9987 -20.4638
0 72.7465 55.9945 -2.26223
74 72.3316 66.3157 -5.42819
74 74.0673 65.9644 -2.65755
74 78.784 68.0394 -1.00241
74 75.1162 71.3569 -3.07976
74 79.2027 70.7795 -1.38305
74 76.7879 70.2445 2.45324
74 76.0329 75.1369 -6.03748
74 75.7765 73.9883 -3.5886
74 75.4071 73.2211 -0.978891
74 79.1708 72.3255 1.32006
74 76.283 76.798 -3.75712
0 87.0731 76.366 8.74657
74 26.3122 1.90825 -48.8566
74 54.7976 1.95518 -6.9058
74 57.9946 4.17962 -8.72147
74 92.6272 25.212 28.4326
74 63.5738 60.8549 -19.8846
74 62.5181 64.293 -22.5443
74 76.4357 66.9501 -1.58469
74 78.9558 69.1125 -3.46353
74 77.9603 73.1416 -5.69663
0 88.3298 78.9801 4.09409
74 64.0726 60.3993 -24.1383
0 102.927 56.3882 28.7239
0 43.3806 -37.8747 -18.788
0 106.493 77.7065 20.1294
0 78.4092 90.7037 -21.0719
74 58.0516 -20.3849 -13.3982
74 92.2636 33.9267 8.84868
0 88.6685 46.1004 0.78673
0 95.0977 50.2442 10.2356
74 59.8639 -22.4603 -12.7175
74 62.928 -20.27 -14.9018
74 60.4546 -19.2787 -13.0867
74 63.0254 -18.4309 -12.7114
74 65.4661 -17.2943 -12.4506
0 66.0203 -5.28195 -14.8187
0 107.396 67.3086 14.5313
74 82.3014 101.315 -31.7769
74 60.4549 -22.8542 -17.139
74 64.454 -18.2299 -14.864
74 75.247 8.46164 -9.47098
0 88.9374 7.29324 4.898
0 76.5669 -7.38599 -10.9984
0 86.9802 5.75726 0.275938
74 100.809 14.4157 13.4437
74 117.665 32.5856 28.5458
0 71.1133 -24.3129 -14.4447
0 73.628 -23.241 -14.2399
0 74.3273 -20.1629 -14.4751
0 75.7258 -14.0065 -14.9454
74 101.21 13.6528 9.24585
74 66.3428 -28.9784 -28.2583
0 74.9557 -18.8558 -16.8013
0 77.6819 -8.31422 -19.8331
0 91.8678 4.35871 -3.49672
74 101.755 13.0748 5.08275
0 121.849 49.4869 15.9595
74 65.3434 -26.4662 -33.0504
74 64.6693 -27.586 -30.6334
74 66.3371 -25.0452 -29.6953
0 85.1563 -11.026 -11.8002
0 80.825 -5.93531 -21.9546
0 67.2038 3.87351 -40.5817
0 85.5023 -20.9599 -12.981
0 81.8702 -12.791 -23.3706
0 82.6404 -7.94162 -21.5147
0 82.781 -0.243047 -26.8422
0 80.1245 -4.85722 -31.2291
0 79.0719 -20.9474 -31.9396
74 84.1979 8.71779 -45.7684
