ITEM: TIME
40.0
ITEM: TIMESTEP
0
ITEM: NUMBER OF ATOMS
74
ITEM: BOX BOUNDS pp pp pp
-144.017 144.017
-144.017 144.017
-144.017 144.017
ITEM: ATOMS type x y z
74 34.6473 86.6021 -64.7573
74 18.405 40.6353 -83.8337
74 25.3109 47.5845 -82.4645
74 29.0817 45.6018 -9.77869
0 31.4196 51.9024 -61.0799
0 41.9793 65.7649 -66.0248
74 21.0203 37.0129 -52.2985
74 27.4976 42.2231 -22.1571
0 13.2088 21.7777 -35.4968
74 16.4873 20.8664 25.257
0 19.5763 28.7579 -38.8018
74 23.9552 32.4533 -39.5632
74 23.7651 36.7099 -39.6746
0 39.9882 54.5545 -69.2853
0 19.9494 26.4025 -30.9314
0 40.7472 47.6307 -55.1622
0 4.12848 0.706819 2.5473
74 6.1144 5.64743 -24.9463
74 8.33862 7.86437 -21.9039
0 29.5988 28.6276 -10.6727
0 30.8007 31.318 -36.0216
74 35.6633 36.1487 -48.0984
0 40.893 43.1572 -55.2349
74 46.2523 50.9369 -68.7201
74 10.5513 5.83322 -25.1605
0 30.8136 29.105 -37.6392
0 32.4958 31.6057 -50.3374
0 42.601 41.2318 -71.1683
74 49.8516 47.4912 -70.6191
74 47.674 47.3912 -69.0395
74 51.3022 46.2397 -15.1394
74 17.3904 4.71359 -3.45688
74 19.5249 6.97991 -0.534408
74 19.7116 6.98032 2.60187
74 21.4411 9.27783 -3.43959
74 21.6265 9.20382 -0.308144
74 21.9611 9.28843 5.64143
74 27.8395 19.9017 -30.6758
74 19.1618 6.98259 -9.55639
74 21.4195 6.83265 -7.9936
74 19.271 7.01018 -6.44239
74 21.514 6.89765 -4.85696
74 19.3353 6.78585 -3.26766
74 23.7571 9.16395 -1.93831
0 24.8692 7.75249 24.0412
74 23.6175 11.2661 -0.205546
74 25.8468 13.474 -0.199265
0 45.6554 34.3586 -55.5476
0 22.8396 3.1811 25.6337
0 26.9374 5.68478 17.5958
74 26.0576 9.21147 -0.429072
0 31.1296 12.5671 15.9559
74 33.6474 14.6835 -35.6199
74 39.4783 25.4836 -73.5627
0 49.5131 36.9571 -69.9109
0 22.7452 -1.19752 19.2357
74 29.3072 5.7843 -38.901
0 32.1287 5.54848 36.4043
74 30.3914 8.83314 -34.103
0 16.4162 -14.8168 17.6877
0 22.9039 -7.88405 17.5454
0 27.6964 -1.23894 31.7189
0 32.0344 1.16986 30.0063
0 33.8367 3.62309 20.4708
0 16.0817 -19.1005 4.96432
0 22.8095 -12.2627 11.1474
0 27.2547 -7.68828 14.2152
0 31.94 -3.20876 23.6083
0 34.1025 -0.897846 23.5609
0 34.3298 1.2203 31.5039
0 20.9128 -19.0945 14.2848
0 36.651 -3.15531 29.7662
0 18.7759 -25.8315 11.097
0 27.8936 -14.5646 25.1756
