ITEM: TIME
40.0
ITEM: TIMESTEP
0
ITEM: NUMBER OF ATOMS
74
ITEM: BOX BOUNDS pp pp pp
-144.017 144.017
-144.017 144.017
-144.017 144.017
ITEM: ATOMS type x y z
74 -3.01258 -4.09049 48.9319
74 13.1412 24.1803 32.4972
0 49.8328 -7.74314 31.6088
74 108.484 -34.074 45.1026
0 31.5787 15.1798 15.7666
0 35.9293 16.0802 15.2188
74 55.826 6.01118 20.5827
74 57.854 12.0752 18.534
74 11.4115 7.83764 17.5115
0 29.4039 13.9055 14.6893
74 55.6831 4.516 17.8507
74 56.4671 3.34049 20.2614
0 31.9056 -13.6085 25.9114
74 104.151 -49.1493 46.9472
0 35.7965 -2.97286 19.4252
0 29.4048 12.2572 11.9871
74 107.887 -54.3982 50.0789
0 109.814 -46.3189 42.1818
74 107.398 -68.4906 51.1268
74 117.122 -61.0385 50.0637
74 56.5365 -18.1034 20.3011
0 32.042 -1.14864 10.8959
74 55.5397 -14.515 18.0597
74 52.1021 -10.3333 17.5017
74 54.4489 -10.6985 16.0254
74 45.6086 31.7385 -10.0697
74 53.6559 -18.3425 16.8015
74 56.9641 -20.8044 20.0645
74 55.3868 -15.9176 15.5406
0 33.1637 2.19143 7.00508
74 82.3401 -9.72388 11.8423
74 100.322 -16.4426 19.5339
0 40.5426 -25.455 20.1634
0 22.7482 -12.2673 10.2595
0 24.9908 -3.93885 5.18015
74 54.2223 -21.0087 16.6247
74 58.47 -20.174 15.9436
0 122.274 -54.5839 36.1043
74 57.3159 -16.5444 13.8846
74 57.9409 -17.6078 16.2336
74 54.6363 -14.9722 13.0979
74 56.9332 -15.2979 11.5128
74 90.2544 -29.0478 21.2192
0 11.1543 28.5869 -14.6642
0 12.9939 -12.0024 6.38703
0 12.4664 -9.32122 6.60527
0 0.603229 0.020018 0.903464
74 53.7064 -21.5438 11.6304
74 55.5258 -19.3026 10.1694
74 59.8353 -19.5614 11.8385
0 96.2388 -54.5805 30.5321
0 102.238 -51.3729 28.5775
0 37.4502 -10.5555 1.80485
0 96.9009 -41.5052 20.7029
0 12.602 4.78695 -5.70795
0 28.2892 -2.62103 -3.03796
0 34.8147 -0.446275 -2.5085
0 72.1204 -19.1087 7.03351
74 -8.01479 31.6598 -22.811
0 22.4918 18.6302 -14.1487
0 94.6592 -51.4819 23.08
0 36.3293 -15.5438 2.9934
0 102.306 -45.9671 19.7187
0 23.4121 -2.48858 -4.9742
0 42.3282 -12.3362 1.03882
0 25.6547 5.83986 -10.0536
0 52.6778 -8.2282 -1.46354
74 119.169 -69.9923 29.9519
0 101.253 -43.9014 14.7506
0 40.2211 -6.55649 -6.19502
0 105.076 -40.3198 14.4211
74 127.508 -55.9124 20.9671
74 130.155 -58.7746 19.1492
74 -32.0739 -35.3561 -15.3887
