ITEM: TIME
40.0
ITEM: TIMESTEP
0
ITEM: NUMBER OF ATOMS
94
ITEM: BOX BOUNDS pp pp pp
-144.017 144.017
-144.017 144.017
-144.017 144.017
ITEM: ATOMS type x y z
74 -14.0395 -13.8419 -57.2016
74 23.8835 9.92049 -42.4706
74 24.7608 11.5262 -39.0094
74 22.6869 11.6164 -40.5134
74 -31.1759 31.384 -25.2109
0 56.4276 27.4858 -34.4111
74 48.5558 48.5226 -19.576
74 -0.563272 -34.5091 -9.78726
74 16.8617 8.94934 -13.55
74 31.088 -28.2609 -14.098
74 36.1455 -4.86532 -12.1392
74 25.3907 6.66379 -10.7298
74 23.4179 5.15885 -11.8565
74 22.1923 6.76872 -10.1592
74 21.371 8.58449 -8.41526
74 20.4456 8.65567 -11.1379
0 75.6769 25.581 -19.0156
0 44.7093 27.1235 -12.6455
74 57.3819 36.8282 -13.7883
74 55.3125 35.1532 -15.3421
74 37.5694 -9.63128 -11.0741
74 36.5794 -5.10909 -8.95061
74 33.7886 -4.80558 -8.41394
74 36.8007 -1.94128 -8.91817
0 1.42214 -0.870028 -3.96291
74 24.7158 2.0131 -6.05491
74 25.8445 6.6312 -7.62131
74 29.3432 9.28734 -8.21046
74 24.1061 8.26893 -8.88676
74 27.5946 11.1669 -9.24534
0 44.9591 20.6227 -9.85726
0 49.3849 22.0637 -12.284
74 61.083 36.3255 -11.5878
74 58.937 34.8731 -12.765
74 59.2379 38.1995 -12.4649
74 38.1321 -12.8411 -8.19349
74 38.2226 -9.70073 -7.92643
74 37.0074 -8.35495 -5.93659
74 35.0764 -9.60338 -7.41662
74 37.3238 -5.11188 -5.87252
0 2.04973 -1.05895 -0.866159
0 -1.04703 -0.904704 -0.229155
74 38.8238 -0.5061 -7.64462
74 29.5027 3.1614 -5.50932
74 26.9395 9.53265 -4.54416
74 25.1695 11.3035 -5.54901
74 62.7899 37.8583 -10.1004
74 39.0307 -6.898 -4.88004
74 40.2755 -2.3903 -6.14577
74 28.7902 10.9464 -3.14655
74 25.8842 14.0277 -2.31476
74 24.6865 15.4488 -0.305356
0 41.2217 9.336 -1.69973
74 22.2489 15.581 3.47035
0 81.8574 13.6427 -9.6723
0 53.9866 15.0309 -3.93926
0 49.9994 10.245 1.43
0 46.9027 10.3992 2.06701
0 51.5174 14.9962 -0.205509
0 41.087 17.0196 3.6495
0 45.8906 24.7725 1.53123
0 48.1036 -0.818117 2.75703
0 46.9635 0.74251 4.70103
0 69.2076 9.13059 0.70473
0 53.9127 13.0577 4.04399
0 48.8593 11.8056 3.374
0 54.2906 19.3696 4.35248
0 36.3442 -0.39006 8.4018
0 41.7754 7.17394 9.38027
0 39.8188 5.76755 8.07328
0 32.4852 7.63667 11.2913
0 49.4869 11.6167 6.47075
0 55.8693 14.4641 5.35099
0 43.4823 15.0811 7.899
0 31.0953 15.6981 10.447
0 53.3393 24.0861 6.45072
0 40.2575 2.4227 11.0158
0 40.4464 5.57863 11.17
0 46.8288 8.42607 10.0503
74 69.5522 -10.7965 9.5779
0 37.0326 -10.2357 14.1326
0 39.556 0.638483 15.9023
0 47.0786 1.9253 12.8385
0 50.7421 11.2388 12.6643
0 62.8121 -5.3467 12.4418
0 52.5706 -0.167413 16.451
0 44.6094 1.89062 16.5723
0 29.5035 8.9737 20.0658
0 47.767 -7.92033 18.5693
0 58.1908 10.5525 17.5837
0 40.6831 -12.552 24.5756
0 15.0859 6.21115 29.2901
0 32.2027 11.3739 32.607
74 20.7409 15.4563 42.3602
