ITEM: TIME
40.0
ITEM: TIMESTEP
0
ITEM: NUMBER OF ATOMS
132
ITEM: BOX BOUNDS pp pp pp
-144.017 144.017
-144.017 144.017
-144.017 144.017
ITEM: ATOMS type x y z
74 17.7368 16.8534 20.4903
74 14.7729 13.8884 20.4162
74 17.5528 13.7753 19.9028
74 19.5596 12.1714 20.7603
0 11.078 12.476 5.4329
74 16.5684 9.16055 20.9328
74 20.2361 11.2991 15.8762
0 19.987 13.2875 -7.52676
0 14.778 8.92283 7.36747
0 24.9976 5.25249 27.6929
0 19.3101 7.72077 -3.50857
0 29.3598 7.41586 -10.342
0 38.9618 10.6805 -27.8902
0 9.29274 1.79871 2.18413
74 11.2176 7.91043 -39.736
0 21.299 5.84209 -10.7633
0 26.8329 3.62575 -7.29111
0 -0.740784 -1.00986 8.44721
74 9.08964 6.66617 -38.6115
74 12.7803 6.25761 -35.9928
0 19.6512 -1.9737 14.2875
74 12.4698 6.94742 -41.7045
74 14.2766 5.19419 -40.8128
74 13.0063 6.19085 -38.6845
74 14.8496 4.5355 -37.7582
74 16.871 6.05863 -44.4283
74 15.6196 6.90826 -42.2967
74 17.481 5.21144 -41.3606
74 18.0819 4.54583 -38.2365
74 18.7051 3.86086 -35.0154
74 18.7915 6.9609 -42.8609
74 20.7352 5.30701 -41.9513
74 21.2129 4.56213 -38.7473
74 23.5967 5.34008 -42.4133
0 30.9644 -0.383561 5.9286
0 32.9371 0.851239 -0.755787
74 32.2759 9.3143 -52.238
74 47.3752 -3.78721 21.1534
74 11.4936 4.43528 -34.6173
74 12.958 3.17454 -36.502
74 16.0991 3.50191 -39.8099
74 16.9263 5.48701 -36.0919
0 24.8925 -3.83602 -1.74747
74 19.3964 6.22666 -39.768
74 19.9757 5.56638 -36.6147
74 21.6763 1.21831 -36.2502
74 20.6388 4.81829 -33.4539
74 22.4163 0.530849 -33.0064
74 22.5461 6.25497 -40.18
74 24.2577 1.86295 -39.9807
74 23.1551 5.59598 -37.1954
74 24.9833 3.88495 -36.2769
74 23.6295 2.21455 -34.6396
74 27.2154 4.85944 -45.5764
74 25.4626 3.66117 -41.5628
74 27.6236 4.56047 -39.8718
0 31.8126 -1.14589 -7.45237
0 32.9533 -2.26224 -1.32616
74 27.9984 4.01788 -50.3645
74 28.1584 6.80208 -47.1802
74 30.0472 5.1952 -46.0959
74 30.542 4.64832 -42.9587
74 29.0275 6.26977 -41.3053
74 30.8828 4.51677 -40.1793
0 33.7853 0.0889088 -14.1368
0 36.7761 -2.80405 -7.04326
74 29.1217 6.01343 -51.8941
74 31.5801 4.10372 -48.1857
74 31.9352 3.59279 -45.0429
0 39.8896 -2.6856 -7.60144
0 41.0303 -3.80196 -1.47522
0 41.4618 -4.25806 9.80993
74 34.4184 7.07691 -48.3359
74 36.3246 5.43507 -47.2027
74 36.7777 4.72344 -44.1821
0 51.0638 -0.993384 -7.7383
0 22.6272 -4.71679 -14.5703
0 23.4592 -2.36564 -27.3809
0 27.0042 -2.70329 -16.6539
0 29.856 -5.49418 -1.33836
74 26.1904 2.88178 -38.4383
74 27.5654 1.23896 -36.6818
0 32.3991 -4.81755 -4.95964
0 34.2492 -6.59416 -3.99236
0 32.9695 -5.37573 -1.89653
0 34.8195 -7.15233 -0.929249
74 29.2707 2.78403 -38.7641
0 33.37 -2.56848 -25.9923
74 32.3841 2.93636 -41.8746
74 32.9411 -0.132107 -42.5363
74 33.7478 1.91773 -44.0365
74 35.6286 0.127501 -43.073
0 44.4216 -3.88766 -18.4775
0 45.4234 -4.90194 -4.12922
0 45.685 -1.99261 -20.0029
0 23.2138 -8.38845 -12.0775
0 26.3273 -8.27001 -12.6357
0 31.013 -9.72401 4.21748
0 30.7042 -6.25651 -14.7193
0 34.9584 -7.25441 -9.15129
0 35.5288 -7.81259 -6.08818
0 37.3788 -9.58919 -5.1209
0 36.0992 -8.37076 -3.02507
0 34.7886 -3.88898 -36.3101
0 39.3516 -8.35439 -11.8053
0 39.2127 -8.25232 -3.58325
0 40.9238 -9.92685 5.60608
0 41.5859 -4.21026 -34.3634
0 48.8147 -4.98765 -21.1315
0 23.3527 -8.49053 -20.2996
0 31.0292 -12.8375 3.64711
0 33.9728 -9.35362 -24.0699
0 34.9746 -10.3679 -9.72166
0 35.545 -10.9261 -6.65855
0 36.9474 -9.1331 -16.406
0 43.1743 -8.8962 -17.5224
0 49.017 -14.58 4.88664
0 35.5612 -14.0396 -7.22893
0 36.1316 -14.5977 -4.16582
0 34.821 -10.1159 -37.4509
74 45.1286 -20.2104 21.4851
74 56.8729 -20.7209 34.1658
0 24.6647 -15.9359 -23.5361
0 31.8935 -16.7133 -10.3042
74 48.2244 -23.1822 20.4375
0 33.3121 -18.0338 -20.6221
0 35.0232 -19.7083 -11.4328
74 1.01839 -21.1907 -25.7154
0 22.3091 -26.0551 -29.848
74 38.8995 -35.8961 28.0778
0 20.3526 -30.4034 -23.734
74 8.37093 -42.4604 1.54024
