ITEM: TIME
40.0
ITEM: TIMESTEP
0
ITEM: NUMBER OF ATOMS
72
ITEM: BOX BOUNDS pp pp pp
-144.017 144.017
-144.017 144.017
-144.017 144.017
ITEM: ATOMS type x y z
74 1.10072 28.3971 45.4716
74 -34.2655 -11.1363 21.3791
0 8.60586 3.30817 20.046
0 16.5784 -3.80267 28.1837
0 10.3463 1.57032 18.0535
0 -3.59839 2.22355 0.274304
0 30.019 -6.51994 37.2658
0 17.8096 0.970526 20.0674
74 37.1487 5.99208 31.5478
0 15.3314 -6.62554 22.0138
0 23.535 -2.17897 22.7871
0 26.777 -4.34945 30.0264
0 14.5675 3.14101 12.828
0 12.8087 11.1167 1.82097
74 39.9245 5.85597 31.4104
0 2.40523 -18.9944 16.4822
0 12.8323 -3.69622 12.2472
0 17.3055 -1.09352 11.3703
0 21.0123 15.5633 2.5943
0 24.2333 23.9182 -1.87925
0 15.3366 -15.2006 19.4405
0 17.3081 -5.38106 10.0836
0 18.5577 -6.84572 14.9669
0 14.3181 -2.17855 7.19285
0 20.7838 -0.281668 8.672
0 33.458 11.0552 9.85505
0 19.7889 -2.07253 6.85064
0 21.7814 -2.77835 9.20672
0 37.7212 -8.42494 28.0554
0 23.2646 3.02686 5.43899
0 34.4555 8.55847 10.3898
74 26.2956 15.9836 -7.12155
0 20.5554 -16.1266 14.7497
0 25.748 2.04785 0.919331
74 23.4529 14.8505 -11.3798
74 25.3885 14.2053 -8.96181
74 24.5368 16.6929 -9.64608
0 18.8202 -22.9639 14.1689
0 24.2674 -8.0449 3.40041
74 10.0954 16.4452 -31.5346
74 6.84448 15.6127 -28.8141
74 27.8471 10.2105 -10.2255
74 25.2717 13.2248 -13.3229
74 27.1314 12.7925 -10.7652
74 26.6508 11.8209 -8.29239
74 24.4682 15.7302 -13.7988
74 33.8458 17.0405 -6.84327
0 26.5171 -16.2938 7.53175
0 40.4644 -21.2345 24.0243
0 7.56628 3.08071 -25.9206
74 25.3104 11.9477 -17.679
74 30.7119 10.1747 -13.7836
74 25.9117 14.192 -15.6938
74 33.2169 14.4479 -12.9251
74 -14.3951 -11.5658 -36.404
74 27.2299 10.2959 -19.7882
74 28.7995 10.4213 -16.2926
74 27.9695 9.53118 -14.0838
74 29.6486 12.3776 -14.787
0 23.4641 18.4849 -30.4978
74 32.657 13.3281 -17.2541
0 10.6035 -29.7477 -2.1773
74 32.2175 -27.3376 13.0274
74 33.7444 -29.105 11.6334
74 24.9226 14.3367 -44.6977
74 24.8773 10.1137 -46.0379
74 26.6556 12.6774 -46.8123
74 28.5431 11.9369 -44.3828
74 24.8692 13.6672 -48.7462
74 29.399 12.9087 -46.8061
74 30.3436 10.3045 -46.4012
74 105.498 20.5974 -21.9491
