ITEM: TIME
40.0
ITEM: TIMESTEP
0
ITEM: NUMBER OF ATOMS
84
ITEM: BOX BOUNDS pp pp pp
-144.017 144.017
-144.017 144.017
-144.017 144.017
ITEM: ATOMS type x y z
74 43.5599 42.676 1.75916
0 24.1063 31.9116 -5.13263
0 22.483 27.1976 9.11804
0 23.7321 29.3182 -0.584312
0 18.706 24.5438 2.88845
74 36.8971 19.1336 33.5225
74 35.5597 20.1269 35.6266
0 22.8786 21.5717 4.84137
74 37.9233 11.2067 57.9728
74 36.8891 16.3996 29.7516
74 37.4815 16.0567 32.8469
74 34.2973 18.2494 34.1465
74 34.8912 17.9103 37.2386
74 36.4676 19.4548 30.4111
74 32.4614 14.2349 28.7386
74 36.1973 14.4983 23.072
74 36.8113 14.097 25.7438
74 35.3355 15.1178 27.8909
0 24.1115 12.3392 11.2435
74 34.2735 13.6036 10.1288
74 35.8745 12.1523 18.2731
74 36.7141 11.4131 22.1639
74 35.2485 12.3357 24.4097
74 35.8085 12.0239 27.1504
74 37.783 13.5637 12.9991
74 37.1758 13.38 20.3568
74 29.4379 11.6022 6.34178
74 31.9395 8.11398 15.0884
74 35.0608 9.69441 12.113
74 32.5307 12.5541 14.5536
74 35.6244 9.12012 15.1993
74 33.7358 13.7048 7.34074
74 35.1446 13.2694 13.9694
0 17.4998 5.98468 13.1341
0 23.9015 7.22 3.90161
74 30.0737 8.32602 17.0103
74 33.4321 8.25313 10.4722
74 33.4147 9.45455 16.9324
0 9.07089 1.14994 5.82897
74 40.4313 12.6654 -22.1858
0 53.5463 8.00706 16.1514
74 41.3933 9.19612 -19.7955
0 27.2584 -0.364702 -4.55262
74 25.7754 3.89988 -23.8422
0 33.3909 0.836832 -5.56585
0 11.8221 -5.92816 -5.6905
0 12.4655 -3.30096 -18.4581
0 16.7432 -3.71341 -12.8342
0 22.6065 -2.54566 -5.62818
0 25.2985 -4.53831 -1.58647
0 35.4772 -0.649204 -4.58939
0 40.6298 -1.53447 -4.11954
0 63.2295 -4.60994 30.1303
0 69.1305 -0.308387 21.5035
0 72.4282 -2.80764 28.6105
0 17.6181 -4.18622 -17.9882
0 21.2523 -7.22588 0.403218
0 34.9979 -5.80223 -3.71202
0 72.9289 -5.87387 28.0048
0 16.2639 -8.86644 -11.9569
0 21.185 -6.65169 -19.1006
0 27.549 -8.55017 -12.5002
0 26.6741 -8.07735 -7.34621
0 23.5028 -11.2377 -10.5105
74 29.9347 -16.0004 7.87492
0 26.5691 -10.637 -11.0172
0 10.7586 -18.7938 -7.60673
0 21.543 -15.4113 -7.5444
0 24.6092 -14.8106 -8.05101
74 29.8289 -18.7819 4.35645
74 33.3153 -18.6858 6.8562
74 33.3153 -18.8437 16.3731
0 29.5303 -12.5958 -15.1947
0 32.5965 -11.9951 -15.7013
74 -23.3806 -28.0546 6.50682
0 5.73245 -23.5682 -4.13396
0 10.6535 -21.3535 -11.2777
74 33.2892 -21.1053 3.22128
0 20.7272 -20.024 -17.9516
0 21.3544 -28.7498 -14.6146
0 28.4882 -33.6808 -16.8393
74 54.049 -46.5685 48.7391
74 30.9226 -40.333 -34.0528
74 32.7257 -39.0454 -32.4218
