ITEM: TIME
40.0
ITEM: TIMESTEP
0
ITEM: NUMBER OF ATOMS
68
ITEM: BOX BOUNDS pp pp pp
-144.017 144.017
-144.017 144.017
-144.017 144.017
ITEM: ATOMS type x y z
74 1.82256 -11.3595 1.04194
0 5.03245 0.443438 -1.82199
74 4.22395 -14.583 2.60403
0 14.9562 7.87231 -9.18589
74 23.3773 66.9233 -13.7668
0 10.5381 -11.078 3.15812
0 11.1266 -1.60162 3.30714
74 26.7441 65.1069 -12.0844
0 27.6432 0.913931 -20.1974
74 20.9673 2.00592 -3.13341
0 17.3063 4.42046 -0.657455
0 21.1005 16.9563 -6.02742
74 39.9449 -17.828 -33.8527
74 22.9106 4.90345 -5.67124
74 24.6335 7.85609 -8.21769
74 40.499 -16.2045 -31.6606
0 34.5074 -2.68694 -20.022
0 32.7711 -2.73412 -10.1643
0 37.676 76.2361 -8.92246
74 41.4902 -15.1137 -22.4729
0 39.9465 33.2731 -8.72813
0 38.4418 33.3227 -5.9438
0 43.217 61.6527 -11.0654
74 58.4117 -72.8225 -51.9467
74 50.4394 74.5569 -17.4332
74 48.0933 73.2681 -16.7822
74 66.161 -51.0486 -56.024
74 63.1273 12.6636 -39.7165
74 61.9595 15.7177 -36.937
74 54.6484 31.6616 -24.7586
0 44.9785 48.7244 -2.68599
0 41.9855 -9.78685 -1.46043
0 47.2179 50.1809 -3.30096
74 39.6972 -32.5567 7.78438
0 50.3898 -16.4994 -11.1924
74 48.4914 8.0214 -2.77441
0 71.6979 -44.2645 -44.1617
0 53.7061 -18.3482 -7.56797
0 65.0239 -6.0607 -26.8596
74 66.6433 -21.3053 -26.5471
0 58.5626 -23.3087 -13.8509
74 68.7237 -19.6092 -27.5021
74 67.1625 -19.4541 -24.7
74 65.0826 -21.0216 -23.8638
0 59.7397 -4.35586 -13.5529
0 68.1942 0.0607256 -25.2555
0 65.9548 -1.39574 -24.6406
0 53.6543 43.3243 3.89819
74 69.0408 -16.8686 -27.0823
74 67.9357 -18.1866 -22.4181
74 69.2676 -13.7284 -26.9488
0 67.5702 -6.35374 -18.2815
0 61.2091 -1.34357 -9.21418
0 61.6015 4.97405 -9.11483
74 59.9758 46.739 0.914677
0 77.0221 -44.7537 -34.0788
0 63.3984 -11.0162 -7.85848
0 62.2195 42.8326 1.33897
0 77.3125 12.1074 -20.5427
74 66.4288 56.8043 4.06409
0 74.7561 2.48692 -3.76059
0 75.7223 4.08992 -8.66461
74 85.5272 -24.1483 -25.2285
74 87.0402 80.2475 -11.7538
74 93.8082 -29.0774 -27.7267
74 85.1431 41.9267 -0.0271923
74 97.4347 -24.9303 -24.5687
74 111.861 32.6706 -13.728
