ITEM: TIME
40.0
ITEM: TIMESTEP
0
ITEM: NUMBER OF ATOMS
56
ITEM: BOX BOUNDS pp pp pp
-144.017 144.017
-144.017 144.017
-144.017 144.017
ITEM: ATOMS type x y z
74 0.548174 4.3195 -20.0729
0 18.6513 8.61672 1.32787
0 12.0047 -7.12179 -17.629
0 20.7051 -0.0480334 0.402203
0 43.5993 22.066 39.0235
74 3.09409 3.16889 -90.7242
74 18.1331 14.9014 -58.7113
0 23.5421 -3.74228 -2.01785
0 21.362 -7.18185 -17.9531
0 26.7136 -4.36436 -10.8054
0 28.7796 0.249024 -6.11086
0 30.0624 -0.108098 0.0781197
0 21.7519 8.53608 -55.9798
0 48.4901 9.70703 35.6778
74 69.4131 32.6347 68.9203
74 74.9393 41.2975 65.0418
74 40.0122 -0.990943 7.68896
74 39.9441 -2.40408 11.6398
0 27.5954 12.6195 -81.2384
74 37.3065 29.2698 -86.1301
74 27.8497 -20.4759 -9.25166
74 25.9701 -21.148 -7.38035
0 25.7221 5.92925 -87.7116
0 31.2155 13.8958 -85.1528
74 34.5019 28.2206 -103.599
74 67.6478 25.8873 45.6117
0 70.4515 28.2951 40.2928
74 32.0627 -19.3575 -10.1776
74 33.7636 17.064 -87.7622
74 41.6205 26.7066 -87.1852
0 74.1858 28.3976 47.619
74 30.9921 -3.97158 -69.3605
74 62.6549 2.8859 44.4173
74 64.212 5.623 44.3614
0 36.3389 19.0609 -100.486
74 72.2873 22.1025 37.3846
74 99.5845 58.9274 56.3707
0 55.1 -14.3889 37.7739
74 66.7603 3.83712 43.7549
74 67.3968 3.82737 46.8348
74 66.7729 6.0747 45.2904
0 78.8051 19.0186 59.0713
0 60.9789 -10.5761 36.7754
0 67.086 -9.11103 58.2583
0 71.2967 -0.787351 54.6281
0 74.6731 9.7918 49.6821
0 62.4545 -13.0102 41.1857
0 84.7627 21.9282 45.0534
0 70.6707 -7.56405 30.0838
74 76.1762 -8.29252 27.9732
0 77.8047 -10.4313 51.1038
74 80.3277 -7.25936 27.0276
74 86.8729 -6.70126 66.265
74 89.3421 -7.85674 65.9893
0 87.3038 -5.34231 46.1909
74 105.301 15.6182 33.3288
