ITEM: TIME
40.0
ITEM: TIMESTEP
0
ITEM: NUMBER OF ATOMS
72
ITEM: BOX BOUNDS pp pp pp
-144.017 144.017
-144.017 144.017
-144.017 144.017
ITEM: ATOMS type x y z
74 43.1061 7.59074 -56.0821
74 28.387 0.935339 -47.6462
0 34.5876 9.94111 -41.6483
0 67.6421 56.801 1.11641
74 68.149 57.7857 0.185358
74 67.0539 55.4308 0.584834
74 69.1086 57.1195 4.51965
74 21.7033 0.463335 -28.3435
74 18.9746 0.959538 -28.1565
0 64.0881 60.9274 18.9633
74 61.9301 64.9121 30.796
0 34.6704 5.71426 -26.4792
74 87.3451 31.3417 -31.7777
0 45.4483 53.1555 29.1187
0 -0.216524 0.0683201 -0.120836
0 47.7453 47.147 24.7899
0 64.3153 42.4465 7.70274
0 56.7538 49.5475 23.9235
74 35.2988 13.7433 -2.15678
74 59.0204 74.1923 58.9577
74 34.0912 11.7334 -0.693093
74 24.1744 1.09986 -1.16525
74 22.3575 1.95747 1.2576
0 44.1326 9.26658 -7.87253
74 55.5237 37.7433 22.1125
0 68.071 41.8796 22.0553
74 24.3927 -1.55208 -2.16518
74 22.5808 -0.584521 0.206495
0 48.1401 6.29198 -6.2464
0 52.5069 12.7561 -3.64339
0 53.5236 12.9857 -1.10807
0 58.5842 22.254 4.91454
74 57.5115 35.8684 26.2301
74 61.5097 36.9065 24.5785
74 33.3567 25.2287 39.7963
0 53.1157 33.7075 34.7211
0 57.2677 16.4788 9.9175
0 64.6252 19.7387 11.6113
0 33.1369 -9.83328 1.23126
0 54.8749 6.58084 3.86998
0 62.9263 12.6449 8.9834
0 56.7524 25.3542 32.0434
74 108.586 21.9425 -16.7177
74 17.6611 -14.1031 15.4014
74 49.2436 5.41692 13.0887
74 50.0122 6.05673 15.5292
74 26.7847 25.537 58.4667
0 61.6577 14.8229 19.1745
74 16.8364 -18.2395 16.0676
74 18.0528 -11.408 18.6274
74 22.3673 -10.1728 19.3143
74 19.841 -9.65915 19.2887
0 32.6217 -0.957877 23.3571
74 71.1983 -12.9023 -23.2222
74 49.6891 1.49576 14.8319
0 57.8773 -0.683423 6.2878
0 53.0316 13.7411 27.6718
74 88.7474 17.0199 7.69748
74 17.5753 -17.8255 18.6061
0 40.3022 -0.272537 24.1667
0 74.5664 2.4024 6.23092
0 76.277 5.43622 12.1858
0 55.5557 -10.7483 12.0824
0 51.2964 -5.36597 23.1827
0 59.982 -0.390959 23.2006
0 66.6457 0.0647334 21.4748
0 61.6926 2.64286 29.1555
74 29.1703 -14.269 47.9535
0 57.3374 -7.88127 29.8795
0 64.372 -2.04689 32.4576
74 96.3662 -2.35832 13.3258
74 75.0116 38.2532 112.598
