ITEM: TIME
40.0
ITEM: TIMESTEP
0
ITEM: NUMBER OF ATOMS
70
ITEM: BOX BOUNDS pp pp pp
-144.017 144.017
-144.017 144.017
-144.017 144.017
ITEM: ATOMS type x y z
74 23.8013 76.1886 -0.901318
74 22.6636 78.361 -2.02102
74 23.4108 60.9258 1.16807
0 32.3225 73.7141 1.22439
0 -0.407588 -0.497144 -0.0255435
0 33.7845 66.4171 3.39976
74 13.0386 16.7751 -1.88419
0 16.0136 1.08235 17.2643
74 44.5055 36.0074 29.816
74 43.0899 36.7662 33.8344
74 35.6974 42.6979 8.12193
0 10.2411 -4.11266 -10.0987
0 18.8841 0.413102 3.87879
0 20.1273 0.153495 6.77813
74 11.6931 30.1187 -34.4143
0 51.8274 60.0054 15.8231
0 39.8813 27.0205 14.5362
0 47.0679 46.4249 14.92
0 48.3111 46.1653 17.8194
74 3.74771 -21.9992 -20.3298
0 42.4679 32.15 6.97514
0 47.2924 46.9691 2.77775
0 53.2951 60.29 6.58012
74 5.19433 -26.1291 -21.2798
74 16.73 -13.8537 -12.6149
0 19.4221 -8.01286 -10.9289
74 29.6238 14.8862 -7.43959
0 43.9596 21.6816 12.3095
0 60.8841 61.2096 13.7754
74 14.5956 -19.1879 -15.6326
0 24.5191 -14.1557 1.88593
0 64.714 66.0795 9.11361
0 21.1327 -25.5186 -6.31858
0 24.803 -19.9544 -3.93845
74 27.2932 7.5013 -23.8688
0 47.8841 24.6186 5.70625
0 52.8625 31.1617 5.88531
74 28.4812 -1.31214 -20.0957
0 39.6732 -1.56349 1.69913
74 33.1277 9.79968 -24.9442
74 63.123 46.2336 3.66065
74 63.3506 46.823 6.30337
0 75.0675 53.0995 27.7015
74 22.264 -30.6998 -13.5055
0 28.7571 -20.189 -7.38271
0 36.2515 -17.3365 1.75398
0 63.0974 30.8678 11.8374
74 61.7807 40.1971 2.82172
74 63.8602 39.4402 4.27537
74 61.9936 42.0061 4.94116
74 63.7862 43.9992 4.8296
0 71.6218 48.0796 13.179
74 87.4548 90.5043 11.1616
74 24.6722 -33.9224 -16.3261
74 24.8768 -35.2869 -11.0786
74 23.6385 -33.192 -12.2783
0 37.6246 -15.1189 -5.5475
74 63.9424 8.96755 29.2304
74 56.3945 28.0547 -1.89038
0 64.4352 28.6752 12.7952
74 67.7874 44.2556 2.89362
0 72.8707 55.4016 4.66007
74 25.9762 -36.1606 -15.2437
0 36.5113 -12.3821 -18.6477
0 92.0621 50.6631 21.9242
0 81.4001 29.4104 3.85901
74 104.029 47.9586 36.2504
74 105.403 43.8687 35.2211
74 108.376 38.2241 26.8226
74 107.27 40.3882 25.6756
