ITEM: TIME
40.0
ITEM: TIMESTEP
0
ITEM: NUMBER OF ATOMS
72
ITEM: BOX BOUNDS pp pp pp
-144.017 144.017
-144.017 144.017
-144.017 144.017
ITEM: ATOMS type x y z
74 21.5446 41.1142 46.5708
74 39.7382 41.4415 30.6765
0 84.9587 22.2401 38.3631
0 86.1075 24.5225 34.6876
0 81.4271 22.1552 34.4807
74 60.5079 20.3324 21.4879
74 64.8475 20.3598 22.6242
74 70.301 17.1425 32.0191
74 69.1383 15.3285 35.836
74 71.4505 14.0203 35.4914
74 33.5122 8.71366 28.779
74 63.6845 18.8661 18.7328
74 31.9153 9.82526 26.3147
74 33.1798 11.9719 22.8099
74 35.4685 10.4867 22.5433
74 34.7691 10.6988 25.2164
0 48.1187 21.83 4.78659
74 30.4581 6.17827 23.2691
74 33.2788 7.07516 22.2283
74 35.6046 5.66131 22.059
0 37.5721 20.8057 0.854175
0 27.862 7.57636 8.68556
0 46.5243 12.5922 1.27756
0 51.5431 18.2311 -7.28185
0 32.4461 11.483 -6.53731
0 45.3274 11.0794 -2.76192
0 46.8999 9.87091 -0.294955
0 50.77 13.2273 -5.17891
0 76.5326 12.4201 2.37188
0 -0.257241 -0.634862 0.249718
0 21.9367 4.46587 -3.27583
0 44.2158 2.80414 8.10743
0 40.6471 8.71206 -2.96891
0 42.2196 7.50357 -0.501946
0 37.0784 14.62 -14.0452
0 45.703 8.35811 -4.33443
0 50.8071 7.2345 2.01498
74 4.10312 -2.2258 2.8002
74 8.7566 4.3837 -14.3462
0 28.6023 -3.08938 5.0195
0 34.3462 8.32286 -13.3578
0 36.7289 6.1253 -5.79988
0 40.6361 3.4889 -3.48994
0 43.0189 1.29134 4.06796
0 38.2162 11.6793 -18.2417
74 60.6548 4.87954 3.596
74 6.66484 2.92735 -15.5078
74 7.65395 2.94052 -18.1496
74 9.78537 4.34858 -16.9724
0 42.5842 -0.440882 -2.59549
0 90.9273 6.35453 0.378267
0 9.45717 -9.0678 -1.95088
0 14.8626 -0.92707 -11.5618
0 39.0527 -0.525771 -6.47794
0 40.1905 -3.46648 -10.6744
0 43.3355 -5.88346 -5.74052
74 65.9846 -3.49259 0.156343
74 67.9277 -3.73198 -4.85972
74 68.4894 -4.63424 0.0359112
74 36.1098 3.3399 -27.8909
74 27.6964 14.5459 -49.7116
74 44.9934 0.663839 -18.6217
74 45.8998 0.786984 -21.3634
74 67.3698 -6.31068 -3.94886
74 68.842 -7.47526 -1.41
74 73.0191 5.10265 -22.2945
0 39.793 -11.1915 -10.144
74 34.8711 1.81414 -31.8784
74 43.3794 -2.92129 -21.6386
74 83.1579 9.05265 -33.0221
0 51.0166 -3.62416 -23.7444
74 97.3722 -24.1898 14.8661
