ITEM: TIME
40.0
ITEM: TIMESTEP
0
ITEM: NUMBER OF ATOMS
64
ITEM: BOX BOUNDS pp pp pp
-144.017 144.017
-144.017 144.017
-144.017 144.017
ITEM: ATOMS type x y z
74 -31.2942 -27.9081 -10.4212
74 11.2017 52.8738 23.2321
74 15.8549 60.0664 20.2845
74 -6.18748 -47.6052 4.17115
74 8.19761 43.3369 9.4948
74 -5.46265 -44.9828 4.12288
0 0.742447 -0.154056 0.505486
74 22.8028 54.6012 23.2913
74 32.4902 38.253 36.9481
0 22.6075 42.6549 17.9498
74 -6.94498 -49.7453 -10.635
74 3.16822 -33.0461 -1.81956
74 0.15812 -28.1629 -5.0563
74 2.41209 -25.257 -2.51682
0 25.8236 18.6266 24.3527
0 19.8958 47.4708 10.3919
74 -6.18602 -49.8944 -14.876
74 2.91843 -25.4804 -6.8248
74 38.6675 37.2727 32.3787
0 25.7404 43.7637 13.8867
0 33.8706 47.9275 21.9082
0 23.2931 67.5554 3.08023
74 22.6891 88.8691 1.82408
74 8.22089 -31.7396 -3.35563
0 8.62903 -23.5468 -5.96183
74 32.3676 -21.1768 28.5484
0 35.4388 1.65087 24.6682
0 7.66923 -30.2004 -17.1482
0 18.5111 -30.8524 -1.56877
74 -2.01661 -27.1551 -32.6876
0 34.9296 39.4747 11.171
74 31.9413 11.6945 5.33233
74 61.1791 14.9043 48.9182
0 28.6577 -19.182 -0.424253
0 20.5777 6.62628 -16.873
74 33.2802 14.7205 0.904238
74 32.6372 13.2009 3.14732
74 47.489 25.0762 21.8088
0 24.7768 -28.6349 -9.69497
0 25.1221 -25.4903 -9.80363
0 41.3042 -10.637 10.4256
0 28.4435 -8.18575 -5.60292
74 50.934 29.0442 18.2047
0 21.0294 -33.2527 -16.9269
0 43.88 -10.9822 8.61864
0 31.7098 -2.24192 -7.62724
74 29.7564 -42.7775 -7.12942
0 35.2686 -13.82 -8.65912
0 40.823 -9.31089 1.16938
0 56.8717 0.707401 19.3599
74 30.7025 -38.343 -17.1581
74 32.7013 -35.4251 -14.708
0 30.0595 -15.1846 -18.5963
0 60.7782 -17.0318 25.5454
0 56.7382 -4.1277 17.3211
74 67.8191 -4.20883 32.0248
0 46.7435 -10.238 -6.84815
0 63.6161 10.9045 13.1638
0 46.8219 -16.7636 -11.0344
0 64.4633 4.14227 4.57398
0 64.8085 7.28681 4.46532
74 42.6108 -13.085 -36.0121
74 71.0643 15.2488 -0.448913
74 73.2795 18.1576 1.84849
