ITEM: TIME
40.0
ITEM: TIMESTEP
0
ITEM: NUMBER OF ATOMS
66
ITEM: BOX BOUNDS pp pp pp
-144.017 144.017
-144.017 144.017
-144.017 144.017
ITEM: ATOMS type x y z
74 -4.87109 12.215 -4.58985
0 -0.458062 -0.136467 0.602568
0 10.8244 0.801551 2.04377
0 10.8353 2.79212 -2.81323
74 14.814 -11.9401 18.1431
74 16.6939 -9.32977 15.1678
74 25.386 -1.59235 23.9488
74 24.6776 -10.0918 9.99123
74 22.3758 -10.7526 11.3521
74 27.2864 -1.29512 25.9236
74 38.7624 6.67926 -11.2938
74 27.6027 -9.66244 8.76335
74 30.1645 -10.1236 10.6289
74 39.3517 4.3024 -9.768
74 42.0411 4.97906 -13.8652
74 31.6204 -13.9717 10.9098
74 31.1631 -14.0038 14.1292
74 33.0762 -10.8694 8.0859
74 30.7649 -11.9562 12.5356
74 28.06 -11.8318 16.6434
74 29.845 -9.08434 13.5747
74 33.9555 -15.2964 11.4595
74 30.7558 -13.5055 16.7037
74 32.6263 -12.9267 18.5101
74 34.6158 -10.2453 15.9714
74 38.9467 -11.1068 18.2602
0 37.6902 -13.214 26.7871
0 42.6969 -5.01742 23.969
0 49.6456 5.84043 18.1203
74 28.5759 -31.2106 39.7135
0 49.0163 -4.31365 8.80025
0 49.7077 -5.31461 24.8944
0 54.926 -3.5036 -3.23159
74 56.0131 6.20812 31.0257
0 67.2582 9.47278 -0.464233
0 47.63 -25.4102 12.5281
0 55.9834 -12.5731 29.1536
0 68.1395 -1.89483 0.0359869
0 67.7299 -1.78854 3.1729
0 66.9217 0.414604 4.58973
0 67.719 -3.77911 8.0299
0 71.3722 -10.7074 -5.63134
0 69.734 -10.2823 6.91633
0 70.5422 -12.4854 5.4995
0 77.4799 -3.61813 4.50782
0 77.9004 -1.73385 -3.4861
0 79.8314 -1.0631 -1.65973
0 73.9947 -11.0376 12.2892
0 76.4301 -15.6565 3.18166
0 77.1326 -14.6669 14.4188
0 85.1118 -10.4071 -23.0116
0 82.245 -9.66311 -1.05322
0 82.2341 -11.6537 3.80378
0 84.9952 -9.20494 -5.50068
74 87.0527 -16.0818 -24.8178
74 88.7934 -13.1531 -27.5543
0 94.683 0.120514 -10.9398
74 94.5635 7.25576 11.7265
0 83.1045 -25.0119 9.161
74 90.3571 -19.4984 -26.053
74 96.3947 1.20658 11.0348
0 99.8577 -6.03075 -19.6378
74 105.96 2.0803 -11.8977
74 88.736 -34.7497 14.1596
0 101.441 -16.4088 -7.90043
74 116.704 -27.6108 36.8873
