ITEM: TIME
40.0
ITEM: TIMESTEP
0
ITEM: NUMBER OF ATOMS
60
ITEM: BOX BOUNDS pp pp pp
-144.017 144.017
-144.017 144.017
-144.017 144.017
ITEM: ATOMS type x y z
74 13.8163 41.6278 2.05551
74 65.9204 42.9559 -85.2273
74 8.38331 37.5517 27.7854
74 -13.9694 27.3813 -17.6323
74 0.367164 25.4414 -5.52534
74 0.424972 22.5853 -2.40489
74 5.40658 26.1152 -3.71475
74 9.59449 24.8619 -3.52139
0 18.1986 23.4783 2.70602
74 7.17918 18.187 23.6573
0 7.15438 12.2272 -10.0309
74 31.4902 14.2814 28.3197
0 11.3349 5.95932 14.2998
0 7.01202 3.70734 9.41797
0 24.2748 0.785628 -45.0546
0 50.5826 2.28644 -32.6135
0 16.0281 -3.79976 2.33169
0 13.8873 -1.99083 10.0631
0 31.6565 -5.37381 -53.8807
74 6.51091 -6.45285 -12.9043
74 37.7614 -7.33601 -28.8141
74 35.6572 -5.77703 -21.4224
74 40.5793 -6.97434 -25.4636
74 38.8075 -5.4048 -17.9818
0 22.9632 -12.7177 -57.1614
74 36.6004 -9.25632 -30.4957
74 38.0883 -10.2791 -25.3258
74 37.6944 -10.241 -22.1838
74 39.1449 -8.41371 -20.8101
74 37.0707 -6.79874 -16.5072
0 53.0875 -8.50367 -30.3672
0 57.5792 -6.40545 -28.6424
74 30.8412 -13.2466 -36.6731
0 29.3197 -11.8949 6.61021
74 32.519 -11.8753 -38.5188
0 30.8327 -10.2488 5.02415
74 39.3941 -11.5733 -20.5064
74 42.1223 -10.9908 -17.1805
0 54.2217 -12.4199 -45.9838
0 57.8694 -9.55293 -28.4736
0 18.3642 -14.4361 7.735
74 29.7265 -15.1641 -38.4493
0 59.6251 -13.8943 -23.4079
0 63.6166 -14.3647 -39.0396
0 63.279 -14.0572 -32.7254
0 63.1102 -13.9034 -29.5683
74 31.4273 -19.6742 -42.6494
0 30.744 -18.9586 -8.83757
0 40.0176 -17.9097 -5.21921
0 34.9105 -22.6127 -54.4539
0 68.3511 -18.2539 -30.663
74 79.0471 -22.5005 -25.8224
0 34.6468 -28.1388 -38.3309
0 39.9351 -29.6494 -45.9086
0 39.7188 -32.3356 -36.2685
74 20.2606 -43.6891 -84.8951
0 28.4934 -37.3731 7.8069
0 29.8377 -35.5733 9.37791
74 25.9578 -38.1399 16.2364
74 40.7341 -40.8371 -60.2465
