ITEM: TIME
40.0
ITEM: TIMESTEP
0
ITEM: NUMBER OF ATOMS
214
ITEM: BOX BOUNDS pp pp pp
-172.2 172.2
-172.2 172.2
-172.2 172.2
ITEM: ATOMS type x y z
26 40.9952 56.2031 2.06877
26 118.738 47.4331 16.5422
26 70.8871 35.8408 13.8992
26 118.3 44.6223 18.3406
26 70.5167 35.4042 9.81962
26 73.7379 34.5346 11.1324
26 72.2433 37.6352 8.85968
0 131.146 -26.1225 56.4558
26 57.9989 12.8852 21.4841
26 59.5379 14.2934 19.1484
26 124.652 -18.0442 50.2401
26 117.3 2.09633 34.4642
26 152.349 42.43 12.9946
0 53.4015 22.4086 6.04135
0 107.973 -42.1709 52.8141
26 127.09 -21.4306 43.3707
26 78.2554 21.0522 8.21989
26 98.2068 -23.4676 36.6748
26 96.9225 -48.9844 48.5771
26 74.7805 -36.3775 38.6928
0 103.937 -42.9802 45.8111
0 120.534 -42.2483 47.9543
0 118.828 -35.6979 43.464
0 115.818 -32.1529 42.4274
0 59.3211 15.5112 1.08599
26 36.7123 31.6102 -13.7854
0 0.659142 -1.05689 -0.923464
26 91.2261 -37.2813 37.5726
0 14.2465 3.22002 0.183191
0 116.195 -33.6943 40.0357
0 119.893 -31.8256 37.6918
0 116.03 -25.0054 34.41
26 36.0616 29.5479 -14.448
26 4.13408 -14.7973 5.06367
0 7.36647 -2.73317 -2.23079
0 9.76104 -3.86987 -1.12094
26 -0.323532 8.39393 -8.00778
0 15.3114 7.09234 -5.58899
0 24.8897 2.54552 -1.14961
0 27.2843 1.40881 -0.0397675
26 9.79677 11.8564 -9.53058
0 117.875 -32.2302 34.1902
0 120.269 -33.3669 35.3001
0 47.5789 4.00944 -0.240434
0 50.8998 7.4195 -0.19266
0 56.827 16.8404 -7.0524
26 76.8538 23.8161 -8.39616
26 84.0642 46.6121 -22.847
0 111.315 33.2736 -7.33589
26 122.94 50.3107 -15.5745
26 25.9636 -6.42588 -0.178953
0 107.985 -34.6384 30.7397
0 116.71 -35.9101 32.9339
0 118.252 -33.7716 31.7986
0 120.646 -34.9083 32.9084
0 51.8917 3.46987 -2.6576
0 63.0844 8.88348 -2.66079
26 117.906 10.7647 4.76667
0 113.848 31.4624 -10.9362
26 157.642 10.5447 8.69258
0 118.794 -44.0018 35.0326
26 76.4673 -19.1665 12.0664
0 102.72 -30.6312 23.8831
0 47.7175 3.33501 -4.95055
26 123.352 -27.8319 26.2241
0 43.3783 11.889 -12.8692
26 127.015 -11.3664 15.1634
0 105.215 16.2232 -4.19745
0 107.206 24.6423 -11.0317
0 103.105 32.3294 -16.6319
0 105.5 31.1927 -15.5221
26 154.423 9.72879 6.89507
0 109.757 -49.6852 33.8272
0 69.7376 -24.9475 11.5793
26 39.919 -5.37102 -4.88398
0 115.308 -38.723 29.3591
0 116.849 -36.5845 28.2238
0 75.9761 -8.57162 3.73074
0 48.5443 8.07426 -13.0412
26 124.826 -30.0776 24.4962
0 57.2693 6.80263 -10.847
26 84.1767 7.61298 -7.12502
26 128.548 -13.0392 14.3407
26 127.629 -9.60063 11.9893
0 97.4818 13.5452 -8.8566
0 104.904 9.2682 -3.20864
0 110.831 18.6891 -10.0684
0 112.372 20.8276 -11.2037
0 105.877 29.6513 -17.9137
0 105.262 32.0596 -17.8405
0 110.051 29.7862 -15.6208
26 50.0588 -12.3945 -2.23049
26 75.0534 -23.2201 10.4531
26 74.6183 -21.2109 9.14171
26 77.2549 -22.3288 6.37717
0 111.345 -31.7103 19.0488
0 45.8384 2.25593 -13.1622
26 107.401 -27.3765 16.5389
26 124.104 -27.3458 17.1416
26 124.256 -27.5136 21.0087
0 66.2061 12.6785 -16.6701
0 138.805 -8.18704 9.93751
0 110.428 28.2449 -18.0125
26 4.25293 -17.765 -9.4239
26 93.8771 -28.3091 9.0585
0 73.647 -15.9313 1.21802
26 90.4727 -22.9477 5.63208
26 94.6068 -24.4419 8.26691
0 75.1884 -13.7928 0.082696
0 56.4816 1.58144 -14.495
0 138.943 -8.86147 5.2274
0 116.374 13.3329 -12.6321
0 112.511 20.1531 -15.9138
26 125.976 -68.6079 40.1186
26 87.0743 -29.2725 7.688
26 90.7951 -30.1017 6.9928
26 93.0294 -30.3139 8.03384
26 86.7282 -26.8081 7.49319
26 88.8351 -26.2015 6.59274
26 89.06 -28.5357 6.63994
26 91.147 -27.7718 5.42238
26 96.7564 -29.891 7.49615
26 88.5056 -23.8289 6.60452
26 90.5942 -25.0477 7.80778
26 92.8759 -25.7444 4.29414
26 95.2123 -26.8026 5.40274
26 98.3394 -28.5114 8.89223
26 97.1849 -25.7883 8.66036
0 113.998 -9.86312 -1.50174
26 178.457 -24.1594 17.4334
26 69.3545 -35.9322 6.44591
26 81.8723 -42.2524 13.5318
26 94.7793 -29.0911 6.8521
26 117.637 2.59079 -11.6181
0 143.871 -11.8093 2.73698
26 81.3154 20.3936 -28.8054
26 120.238 2.25744 -12.4362
26 181.253 -25.3743 14.8311
26 179.09 -21.9682 14.15
26 74.9197 -19.4934 -5.75559
0 113.449 -15.9512 -2.83135
0 118 -17.3577 -2.93009
26 119.803 2.89453 -14.8901
26 129.543 -3.81703 -9.0346
0 141 -8.93877 -3.00973
0 145.551 -10.3453 -3.10846
26 117.512 5.03494 -18.1425
26 119.209 5.43711 -14.8968
26 160.907 -12.3922 -0.189905
0 99.2652 -42.1526 8.37541
26 130.781 -47.0024 14.7359
0 114.44 -19.9009 -5.29629
0 117.523 -15.6239 -7.56695
0 119.918 -16.7606 -6.4571
0 122.312 -17.8973 -5.34726
0 141.992 -12.8884 -5.47467
0 141.377 -10.4801 -5.40141
26 118.206 2.61292 -18.2089
26 120.358 2.32747 -19.2918
26 117.47 5.83058 -20.4347
26 119.624 4.67773 -19.4092
26 75.1231 -48.9137 6.39907
0 98.5506 -39.5519 1.42012
0 94.6878 -32.7317 -1.86164
0 109.34 -24.5825 -6.52717
26 173.865 -37.6261 14.6606
0 125.157 -12.7534 -9.93634
0 159.131 -22.3867 -0.0974355
0 163.92 -24.6601 2.12225
0 141.754 -12.0215 -7.7931
0 148.937 -15.4316 -4.46356
0 150.479 -13.2931 -5.59889
0 173.333 -20.5181 0.935963
26 114.91 44.153 -49.1141
0 108.414 -29.1292 -5.4651
0 120.91 -20.7102 -8.92204
0 168.233 -25.1997 -0.294912
0 103.075 -32.9439 -9.0144
0 112.488 -28.8019 -10.2007
0 130.7 -18.1095 -12.5
0 140.966 -17.2427 -11.4411
0 160.646 -12.2338 -11.5685
26 124.359 27.5858 -43.833
26 195.321 -1.37474 -14.8366
26 256.742 8.13897 -11.2826
26 82.3535 -34.6049 -12.8565
0 91.0291 -35.0824 -11.2564
0 148.527 -22.1941 -10.5033
26 76.6353 -16.6346 -30.6123
0 110.232 -28.3396 -16.0206
0 173.372 -21 -10.8027
26 98.6134 -71.1335 5.44928
26 17.8821 -24.5153 -38.1987
26 119.904 -70.055 7.22848
26 108.208 -53.7056 -3.44601
26 157.813 -34.2011 -11.4657
0 179.365 -20.0755 -19.0653
0 185.934 -21.0774 -15.6625
0 192.952 -15.7986 -17.9586
0 194.494 -13.6601 -19.094
0 197.338 -8.51623 -23.6831
26 42.3166 -52.9323 -22.0481
26 155.754 -34.0977 -14.6309
26 157.419 -35.1561 -13.4849
26 217.022 -26.7499 -13.1099
26 197.987 -18.2641 -30.2631
0 205.48 -24.1799 -31.2499
26 131.229 20.8808 -72.6707
0 212.498 -18.9011 -33.546
0 221.124 -19.9803 -38.3803
26 220.093 -14.8216 -42.7147
26 163.256 -14.1999 -58.9354
26 232.731 -50.1292 -41.2193
26 231.23 -103.716 -35.3718
