ITEM: TIME
40.0
ITEM: TIMESTEP
0
ITEM: NUMBER OF ATOMS
220
ITEM: BOX BOUNDS pp pp pp
-172.2 172.2
-172.2 172.2
-172.2 172.2
ITEM: ATOMS type x y z
26 76.2455 79.3957 48.8382
26 92.227 9.46739 100.39
26 -1.58164 -22.5034 49.2587
26 6.4354 -6.37284 19.7655
26 66.6329 32.2197 34.7578
26 58.2291 -4.39891 43.9798
26 68.0187 26.9019 31.5461
26 -4.38733 -1.81468 -9.48674
0 4.54006 -5.64223 0.0587477
0 14.8645 -8.3056 7.62533
0 4.57609 -1.8497 -4.91577
0 7.55217 -0.951679 -1.31145
0 11.024 0.708494 -0.0205448
26 13.9691 24.8109 -16.3836
26 116.23 -0.308026 77.402
26 104.343 21.4163 50.7649
0 110.901 21.3672 55.7852
0 112.371 19.9199 60.0746
26 -8.35253 -11.7871 -10.0961
0 8.45261 -7.07126 -2.24441
0 14.4408 -1.48268 -0.0102864
26 6.60852 6.91972 -13.2869
26 15.7711 7.13494 -6.67439
0 20.9247 4.86804 -0.0895789
0 6.52289 -2.59362 -9.19493
26 63.7119 -0.771939 29.571
26 10.2671 -13.8805 -3.17557
26 30.0157 6.81393 -6.38326
26 64.6158 0.683199 24.9799
26 64.1617 -0.0471202 27.2841
0 64.3511 8.75843 18.5098
26 92.8669 11.9993 38.1174
26 116.285 7.21091 61.1946
0 112.243 12.1584 51.2581
0 78.3653 26.8355 15.005
0 83.3071 27.0485 20.5854
26 91.4389 44.4836 11.1501
26 92.7919 44.5778 14.142
26 30.6613 -7.39166 0.670823
0 34.647 -0.0453174 1.2321
0 36.1531 2.29996 0.547001
0 38.1188 1.61486 2.523
0 47.9835 1.98187 7.42848
26 45.9841 10.0795 0.732075
0 59.869 5.51513 15.5906
0 53.5481 14.3934 2.027
0 58.4899 14.6063 7.60732
0 110.682 5.96175 50.6626
0 77.8146 22.222 16.0378
0 125.028 9.57206 58.4873
26 87.1798 31.1082 12.9791
26 37.8059 -18.6188 13.6018
26 49.3064 -9.2948 13.7673
0 45.0075 1.08385 3.82416
0 58.8037 0.0806542 12.6816
0 56.3782 3.79614 8.04454
0 62.2754 1.74083 13.9725
26 62.4012 13.4352 6.35325
26 101.349 12.9806 33.1562
0 116.155 10.7294 48.955
0 121.593 11.7044 52.2219
26 134.809 21.889 53.1384
26 78.0381 16.2803 11.5309
0 121.447 0.209184 54.6351
0 112.664 9.01037 41.4089
0 125.469 6.48286 54.8932
0 127.435 5.79776 56.8692
26 70.7917 29.1775 -2.6651
0 129.437 8.90519 53.8707
0 57.9014 9.87514 -3.87023
26 69.6847 10.6051 4.53443
26 81.2398 14.1335 10.9483
0 122.898 -1.29689 52.6694
26 81.8835 15.4358 8.70556
26 120.575 -13.4185 57.0413
26 71.111 12.6558 1.65414
26 68.6932 19.205 -8.33085
0 72.2843 17.278 -1.02004
0 68.6665 4.12258 0.102288
0 70.1726 6.46785 -0.582809
0 71.6426 5.02059 3.70661
0 113.546 2.83197 34.2208
0 115.512 2.14687 36.1968
0 68.1159 -0.49093 1.13506
26 103.388 -9.22071 30.7159
0 73.5894 4.27668 -0.57255
0 109.559 0.350833 28.9881
26 133.098 -2.73767 47.4942
0 77.466 -0.944885 2.0988
0 78.0166 3.66862 1.06603
26 88.5909 6.10528 5.9932
26 89.6515 7.6356 7.55717
26 133.024 -4.77984 46.79
26 144.214 -1.88791 55.2094
26 81.0239 -29.0767 21.1146
26 93.3412 -24.9396 26.9329
0 111.966 -3.42347 27.3701
0 82.9206 3.76391 -5.86397
26 70.0371 -24.6814 3.13551
26 69.2765 -9.96957 -10.7623
0 98.1319 -2.5379 6.00229
26 146.289 -11.9018 49.7463
26 82.983 17.7436 -20.7651
26 122.077 3.88603 17.8623
0 84.0627 -24.4664 8.22642
0 114.262 -14.9005 23.1907
0 75.9581 0.384746 -14.7009
0 86.8692 6.12742 -13.1416
26 83.9616 15.5651 -20.4258
26 145.866 3.314 31.4338
26 167.958 4.16407 47.2027
0 82.3321 -0.967228 -17.3415
0 87.3099 3.03822 -16.7357
26 74.7824 -36.5281 -2.3998
0 107.118 -33.5674 21.7415
26 140.487 -35.9272 45.0272
0 78.8053 -6.47875 -19.9131
0 118.12 -20.1808 19.6069
0 119.166 -14.8052 16.2607
0 115.64 -20.3167 13.6892
0 109.283 -15.231 5.10009
0 117.146 -17.9714 13.0041
26 100.838 -45.2461 16.6369
0 120.345 -39.2429 25.3766
0 121.815 -40.6902 29.666
0 116.504 -30.2288 17.7307
0 118.47 -30.9139 19.7067
26 81.9148 -13.8791 -23.5029
0 116.54 -26.4363 12.7562
0 112.276 -10.5993 -2.52526
26 94.7011 0.476417 -24.0172
0 123.266 -42.1963 27.7003
0 126.774 -36.7435 24.0167
0 119.921 -32.42 17.741
0 128.28 -34.3983 23.3316
0 125.945 -23.0389 15.0006
26 101.724 -32.5112 1.31903
0 121.832 -36.9565 18.4364
0 125.304 -35.2963 19.7273
0 132.707 -35.0063 24.9702
26 93.4465 -0.619319 -33.5325
0 135.204 -31.1367 19.6582
0 124.916 -24.6808 7.11713
0 130.813 -26.7361 13.0451
26 128.745 -14.1165 -1.04738
26 128.227 -10.8057 -1.19429
26 132.078 -9.38541 -2.34787
26 128.322 -15.1882 -2.95983
26 131.022 -14.0253 -2.15663
26 127.878 -13.3862 -4.44461
26 129.721 -12.0119 -4.86057
26 132.519 -14.525 -0.192392
26 131.471 -10.4705 -4.43527
26 131.016 -8.69623 -5.94916
26 140.09 -32.2944 12.3018
26 138.896 -32.3736 14.5155
26 141.366 -32.1917 14.2647
26 144.666 -31.7311 17.1133
26 142.465 -36.9213 15.5281
26 140.345 -34.2068 13.846
26 144.367 -36.3631 13.9771
26 165.081 -37.973 22.8825
26 184.776 -38.3951 37.7504
26 175.407 -23.8536 21.7955
0 143.705 -14.2699 -12.1341
26 157.986 8.96623 -18.3014
26 185.008 -40.9274 32.5403
0 144.146 -17.3591 -15.7282
0 147.745 -4.26254 -23.1056
26 183.652 -40.9166 29.4128
0 179.438 -37.3349 23.5337
0 153.091 -10.9314 -16.1449
26 162.013 -60.7147 25.4737
0 165.036 -44.7966 14.4284
0 152.026 -16.3658 -19.0538
0 153.496 -17.8131 -14.7644
26 146.743 12.8983 -44.408
0 153.477 -17.8719 -21.0196
26 175.707 -46.9662 12.4139
26 149.206 -31.9804 -18.5534
26 151.487 -30.4699 -15.6945
0 154.433 -20.1401 -20.6719
26 207.103 1.95045 2.37615
0 149.605 -53.9002 -2.56048
26 152.146 -31.1936 -21.3463
0 181.311 -41.989 11.7187
0 160.77 -25.2847 -18.338
26 173.813 -48.269 3.68269
26 158.773 -39.8434 -11.8489
26 201.999 -54.72 31.5845
26 152.094 -33.341 -22.0248
0 144.07 -17.5944 -40.7488
0 157.83 -22.3901 -26.9168
26 170.268 -52.7342 2.32056
26 172.767 -49.711 2.10478
0 166.981 -41.8656 -7.33564
0 165.347 -51.9724 -15.467
0 179.107 -56.7681 -1.63499
26 157.782 -47.8475 -21.1722
0 168.818 -50.3122 -14.1761
0 168.323 -51.0744 -11.8627
0 170.784 -50.9973 -12.2001
26 158.104 -15.4467 -47.7692
0 166.798 -53.4785 -17.4327
0 163.877 -50.5251 -19.7564
26 188.672 -73.839 9.05053
26 192.033 -63.7784 5.9944
0 167.88 -44.3103 -25.7534
0 175.669 -50.9608 -25.3852
0 180.592 -50.8067 -26.0601
26 188.025 -36.4457 -35.748
0 180.295 -32.5474 -42.3641
26 186.622 -26.4189 -43.4569
0 183.585 -46.175 -33.6854
26 166.105 -29.4261 -65.6907
26 185.299 -78.229 -16.2439
26 193.139 -38.8529 -41.7181
26 186.048 -69.606 -27.7001
26 174.082 -51.9385 -50.0899
26 205.375 -46.0225 -33.3968
