ITEM: TIME
40.0
ITEM: TIMESTEP
0
ITEM: NUMBER OF ATOMS
214
ITEM: BOX BOUNDS pp pp pp
-172.2 172.2
-172.2 172.2
-172.2 172.2
ITEM: ATOMS type x y z
26 57.0898 93.541 -10.1766
26 66.7816 93.4491 7.67258
26 100.446 99.1318 -49.6186
26 118.038 99.6099 -37.346
26 34.3874 58.6891 8.36768
0 43.3024 65.1436 -30.1326
0 47.1208 67.8403 -25.9758
0 49.3475 66.8039 -21.8988
0 52.7577 67.8389 -35.1168
0 45.4286 59.8342 -30.623
0 47.8381 61.0781 -33.6434
0 48.0834 60.9126 -30.7885
0 46.4917 57.1794 -30.8682
0 46.9197 59.2943 -35.1107
0 47.1649 59.1288 -32.2558
0 49.1465 58.2578 -31.0337
0 49.3917 58.0923 -28.1788
0 117.924 86.4615 -38.1917
0 45.6358 52.9498 -22.3832
0 46.8192 55.0212 -39.6781
0 50.9452 55.1066 -22.7142
26 68.5038 65.151 -49.0217
0 77.9829 65.5595 -18.6594
26 81.4981 70.5787 -41.0481
0 113.923 81.4845 -35.251
0 118.742 83.9723 -41.2918
0 52.0083 52.4519 -22.9594
0 110.595 78.4568 -33.6979
0 122.705 82.2305 -38.8476
26 105.255 70.9037 -18.4062
26 123.332 81.3982 -50.6308
26 125.266 82.1052 -51.5865
26 123.443 81.2118 -48.2676
26 42.857 44.4624 -35.5942
26 44.7428 43.5812 -34.41
26 106.799 54.2397 120.28
26 109.388 71.2445 -36.9158
0 110.557 71.7379 -28.313
26 124.173 61.6155 139.346
0 35.6337 37.6009 -33.9561
26 78.3789 53.3779 -2.83313
26 82.067 54.0349 -3.15497
0 93.2822 61.369 -24.5448
26 119.451 56.1068 121.344
0 121.534 57.1183 127.16
26 122.152 70.5178 -24.2933
26 60.2539 42.9379 -17.8122
26 89.6113 57.1476 -36.6902
0 88.7907 56.7229 -27.3139
26 117.298 53.5181 122.844
0 120.432 53.0542 132.79
26 57.4811 38.2507 -14.8272
26 60.6819 39.1144 -17.8742
26 60.5392 38.9868 -10.9016
26 68.9655 46.6047 -52.7551
26 93.0741 52.6244 1.67844
0 114.96 49.0702 118.601
26 116.504 51.3929 109.187
26 127.55 69.7469 -42.0939
26 54.4476 33.0555 -13.4377
26 55.7582 34.953 -10.1259
26 62.8808 36.7956 -16.3501
26 62.3476 36.2897 -14.2011
26 62.7054 38.1191 -7.90487
26 82.5193 33.7208 118.229
0 88.7526 50.0041 -21.929
0 111.632 46.0424 120.154
26 32.7808 27.78 -56.6125
26 56.6968 32.2993 -13.8004
26 57.1699 34.5859 -16.8355
26 63.7469 37.9697 -42.0115
0 75.3586 39.886 -4.05175
0 112.022 41.4384 121.297
26 120.75 44.6529 133.034
0 52.1012 25.4109 1.43506
26 57.6009 30.5541 -12.446
0 72.3582 34.7 -11.3086
0 75.9313 37.5622 -10.0068
26 80.6626 40.8314 -25.4262
0 110.858 39.8201 116.974
0 53.5923 24.871 -3.05265
0 -1.09387 -0.429996 0.177698
26 44.8556 19.9218 -37.8834
26 94.8007 26.3343 109.659
0 108.676 32.1449 106.618
0 111.331 33.2233 106.452
0 113.985 34.3017 106.287
0 29.619 11.3455 -27.7477
0 33.4998 11.5964 -13.6387
26 48.3573 16.3227 -7.3961
26 49.1935 18.0747 -5.95205
0 96.1577 26.7096 94.3926
26 99.7594 24.2198 110.478
26 120.605 34.7973 104.282
26 11.8342 -0.340464 -3.42099
0 18.3894 2.6368 -15.7458
0 33.6445 7.15784 -15.3512
0 35.8088 8.56724 -21.2265
0 37.7081 9.68904 -8.33958
26 42.5645 10.4684 -12.3686
0 99.2023 23.1839 95.3695
0 33.2364 5.49613 -32.7258
0 33.972 4.99962 -24.1611
0 34.2172 4.83412 -21.3062
26 42.4023 3.42352 4.68554
26 87.2345 27.6599 -55.5714
0 103.983 18.9528 94.7135
26 125.01 28.2196 94.2023
26 37.1508 -2.64095 -4.75867
26 37.5769 -2.58343 0.354744
26 39.8085 0.701065 -3.83825
26 41.6654 1.03239 6.25657
0 41.8357 3.96176 -29.2251
26 49.7541 0.747553 39.9004
26 55.2209 4.36452 23.6561
0 99.6745 16.5872 84.847
26 23.8742 -10.5824 -0.428472
26 32.621 -3.28247 -49.7351
0 37.3441 -0.684254 -31.9942
0 37.5893 -0.849758 -29.1393
26 39.3738 -3.24858 -3.89085
26 39.5567 -3.47745 -1.06152
26 39.2938 -1.27619 -0.53092
26 41.6396 -4.32436 0.12935
26 39.8367 -3.11051 1.33167
26 42.6575 -2.71973 4.12454
26 42.7259 -1.86865 -2.68006
26 65.4909 0.160248 89.725
26 87.8024 7.81261 86.106
26 9.97341 -20.0547 15.3119
26 42.8591 -6.89905 2.66879
26 43.5014 -5.16172 -1.39738
26 43.6357 -5.11926 1.18413
26 72.456 -2.14398 85.4151
26 82.1436 10.1157 -14.3698
26 100.031 10.8155 64.9747
0 98.6555 10.5303 78.8123
26 38.694 -15.3354 56.4832
0 99.0454 5.92626 79.9547
26 71.6869 -7.35036 78.055
0 88.0184 -0.04902 63.242
26 102.036 4.13871 104.104
0 42.885 -14.5765 -8.74817
0 43.1302 -14.742 -5.89327
0 42.3748 -14.6986 7.15917
26 95.1246 -0.742674 84.9603
26 152.548 16.5165 138.721
26 26.4788 -30.3832 58.9281
0 33.5744 -21.7103 -5.47647
26 45.2337 -19.1049 24.7223
26 83.3239 -6.2457 59.7307
26 122.278 3.71217 103.013
0 32.4732 -25.7745 0.153636
0 39.7018 -22.0428 -8.90759
0 41.6011 -20.921 3.97934
26 52.9691 -12.6146 -45.6105
0 86.6339 -10.6665 71.4021
0 36.9267 -27.8473 8.30764
0 39.8693 -29.8334 42.5665
0 40.1145 -29.9989 45.4214
26 57.2384 -21.4357 52.4207
26 74.5782 -15.6969 31.8105
0 87.4518 -13.1557 68.302
26 87.9174 -13.1681 87.7716
26 101.37 -8.09966 64.4642
26 26.4147 -36.7605 42.5871
0 33.6186 -30.4219 -11.7564
0 33.8638 -30.5874 -8.9015
0 34.109 -30.7529 -6.0466
0 35.0899 -31.4149 5.37302
0 40.8273 -27.1433 0.799514
0 41.0725 -27.3088 3.65442
0 41.3178 -27.4744 6.50933
0 41.563 -27.6399 9.36423
0 43.4821 -26.065 0.634011
0 48.5463 -23.7427 -2.5519
26 100.543 -9.85234 63.0292
0 38.5625 -32.8258 2.1074
26 41.9363 -36.1042 49.9323
0 43.6267 -30.5035 -1.07851
0 48.691 -28.1812 -4.26442
0 77.6706 -19.5054 44.2468
0 80.6329 -21.0384 56.8885
26 86.8091 -17.5902 54.369
0 91.4971 -16.8903 59.0814
26 24.8684 -43.977 46.5854
26 41.8245 -36.8554 52.6018
26 45.2786 -36.1708 52.3376
0 47.8776 -35.3098 35.7901
0 46.3865 -34.7699 40.2778
0 52.654 -29.923 -1.82023
0 88.1691 -19.918 60.6345
0 35.8697 -40.623 7.6578
0 36.8079 -38.3861 -12.492
0 38.9524 -37.4298 3.24979
26 69.9459 -31.2022 53.6509
26 67.996 -36.1379 54.8998
0 79.4937 -31.8214 67.9035
0 69.4474 -38.4587 62.6105
0 75.5748 -38.7911 59.1793
0 78.2295 -37.7127 59.0138
0 80.8842 -36.6343 58.8483
0 86.1937 -34.4775 58.5173
0 80.4562 -38.7491 63.0908
0 84.1116 -37.8797 52.7278
0 88.4204 -35.514 62.5943
0 93.2395 -33.0262 56.5535
26 52.0256 -51.6923 35.9639
0 81.5194 -41.4039 62.8456
26 77.0706 -44.0019 12.5772
26 48.778 -57.6803 4.81474
26 50.6082 -60.8651 13.1115
26 62.8342 -79.4047 99.7492
26 63.6611 -79.8346 23.9194
