ITEM: TIME
40.0
ITEM: TIMESTEP
0
ITEM: NUMBER OF ATOMS
236
ITEM: BOX BOUNDS pp pp pp
-172.2 172.2
-172.2 172.2
-172.2 172.2
ITEM: ATOMS type x y z
26 -49.019 -7.29665 43.5316
26 -31.3702 -23.4297 55.0997
26 -32.5639 -21.9094 51.8178
26 14.5166 33.4341 88.2783
26 -28.3933 38.3572 47.8845
26 21.1051 8.8433 89.0925
26 -25.892 -20.6579 43.276
26 -28.4202 -30.7949 38.434
26 -6.03587 -27.5847 47.7647
26 -4.15445 -22.62 47.7658
26 -6.1998 -19.6448 45.97
26 -24.6996 17.9632 31.7365
26 -4.15981 -21.1269 45.7312
26 -2.19243 -21.1972 47.7803
26 -6.20474 -18.2861 43.8888
26 -4.21596 -18.2809 45.8261
26 -2.37997 -18.3499 47.9646
26 -4.37788 -15.3389 45.5326
26 1.37823 -18.2151 48.4432
26 -0.678881 -15.3663 46.5873
26 5.76991 -20.1209 45.1798
26 7.17783 -15.8369 46.5364
26 9.18977 -15.7668 47.5981
26 4.22697 -14.6434 44.2043
26 9.12614 -13.1152 48.3844
26 3.37917 -10.757 44.1021
26 6.76211 -11.9722 45.5163
26 9.20492 -21.8355 43.8408
26 10.2902 -20.1975 44.9752
26 6.22356 -15.8896 43.3946
26 8.49982 -14.5709 43.0678
26 4.96541 -11.4486 41.7647
26 24.5788 11.4361 57.2098
26 7.89382 -23.4203 40.593
26 6.65161 -21.7307 39.4143
26 10.7393 -13.6972 43.5057
26 9.23579 -11.8796 42.2042
26 11.5831 -18.6531 41.1861
0 20.987 -2.2865 47.0191
26 -11.5918 44.7716 18.5437
0 18.8192 2.02825 43.0425
0 24.7653 -9.56698 44.8282
0 22.8705 1.93826 42.8079
26 36.3188 51.2529 54.2281
0 26.549 -15.3678 42.7405
0 20.4297 -0.937477 36.875
0 22.573 -0.965345 38.7837
0 20.4052 3.34941 34.8071
0 20.4919 1.93187 36.8471
0 22.6352 1.904 38.7558
0 24.7785 1.87613 40.6646
26 34.0876 16.7778 46.6391
26 15.6961 27.8132 30.8181
26 50.4003 -17.7962 60.2075
0 26.3513 -8.24583 36.5927
0 22.2134 -6.73829 34.7873
0 32.93 -6.87763 44.3311
0 24.3323 -2.47927 34.6282
0 24.3944 0.39007 34.6004
0 23.9105 -11.1216 30.6598
0 22.1645 1.83548 30.6516
0 21.7183 -2.51992 24.6153
0 34.6648 -4.10467 38.1078
0 26.067 0.293684 28.4049
0 26.1536 -1.12386 30.4449
0 30.4158 3.10729 32.1946
0 34.3673 -7.00828 34.0836
26 -12.2877 -1.3824 -10.5351
0 30.2426 5.94238 28.1146
0 32.5346 7.36631 32.0355
26 5.09304 11.2962 4.66939
26 49.0046 -39.5409 44.18
0 -0.0368495 -0.857962 -0.564273
0 27.7396 0.197298 22.2095
0 34.2938 5.85238 27.88
0 33.8345 -9.94614 26.0072
0 38.2209 0.0236989 27.7012
0 29.9827 10.195 21.9947
0 -4.8563 -3.74009 -12.4581
0 31.7043 1.52484 19.9349
26 -7.46373 5.59198 -16.9928
0 31.7664 4.39419 19.9071
0 33.9098 4.36632 21.8158
0 29.6608 11.5783 15.9026
26 16.0132 42.7821 3.56694
26 59.5266 -15.3242 41.3304
26 52.0386 -54.1099 31.928
0 0.89209 -8.21335 -16.8203
0 -3.2458 -6.70582 -18.6257
0 33.4391 4.2978 13.7116
0 37.7012 8.52895 15.4613
26 14.7406 -32.054 -5.75683
26 8.27796 -27.6051 -13.5511
0 0.805479 -6.79581 -18.8603
0 2.9488 -6.82368 -16.9515
0 37.2795 -0.113338 11.4928
26 4.59382 2.42662 -17.684
26 4.69784 1.09594 -15.6698
26 17.1331 1.61941 -3.62821
0 30.9983 1.42207 7.77864
0 37.3416 2.75601 11.4649
0 35.4092 7.10502 11.5404
26 9.18475 -30.7163 -14.5831
0 6.60284 -19.8428 -19.0868
0 6.66497 -16.9735 -19.1146
0 8.80828 -17.0014 -17.2059
0 10.9516 -17.0292 -15.2971
0 4.85676 -6.88581 -19.0949
0 7.00008 -6.91367 -17.1861
0 35.1117 4.20142 7.51617
0 32.9439 8.51617 3.53957
0 39.5602 17.0406 9.18222
26 28.5985 30.7837 -0.97109
26 56.8441 -16.2674 22.6888
0 40.9712 -5.97628 7.26182
0 41.0333 -3.10694 7.23395
0 39.1008 1.24208 7.30945
0 41.2442 1.21421 9.2182
0 41.3063 4.08355 9.19033
0 45.5063 5.44536 10.9678
26 15.0415 21.5994 -15.8751
0 38.7412 -4.53087 3.31309
0 38.7168 -0.243983 1.24524
0 38.7789 2.62536 1.21737
0 23.8378 5.68978 -12.1717
0 34.5544 5.55044 -2.628
0 36.6977 5.52257 -0.719248
0 36.7843 4.10503 1.32073
0 38.841 5.4947 1.1895
0 28.3353 9.95519 -6.37
26 66.477 35.269 25.7371
26 4.18569 -1.20904 -32.3365
0 40.6869 2.56323 -0.925975
0 40.7735 1.14569 1.11401
0 42.8302 2.53537 0.982775
0 38.6923 4.0429 -0.822611
0 40.749 5.43258 -0.953843
0 40.8356 4.01503 1.08614
0 42.8923 5.40471 0.954908
26 4.00933 10.968 -30.8828
0 40.476 -1.75791 -2.91022
0 42.6193 -1.78578 -1.00147
0 44.7626 -1.81365 0.907279
0 42.6814 1.08356 -1.02934
0 44.8247 1.0557 0.879412
0 46.9681 1.02783 2.78816
0 42.7436 3.95291 -1.05721
0 44.8003 5.34258 -1.18844
0 44.8869 3.92504 0.851544
0 48.5409 -9.09413 -1.28369
0 48.7273 -0.4861 -1.3673
0 50.8706 -0.513968 0.541453
0 40.5513 12.5545 -7.10165
26 16.7393 -13.8266 -31.3312
0 48.5164 -4.80724 -3.35154
0 50.6597 -4.83511 -1.44279
0 42.1241 2.43259 -11.1735
0 44.2674 2.40472 -9.26476
0 55.0461 5.13472 0.251123
0 46.1378 -4.81364 -9.31239
0 50.3999 -0.582486 -7.56274
0 48.4675 3.76653 -7.48724
0 56.9541 5.0726 -1.89222
0 52.8162 6.58013 -3.69761
26 27.3853 31.3437 -29.8436
0 52.2458 -3.51396 -9.67821
0 54.3891 -3.54182 -7.76946
0 52.3079 -0.644613 -9.70608
0 54.4512 -0.672481 -7.79733
0 44.0076 6.65735 -15.3847
0 48.2698 10.8885 -13.6351
26 42.9255 -52.9523 -21.373
26 6.55394 -48.1687 -52.8618
0 56.3215 -7.89084 -7.84496
0 60.6458 -0.790344 -6.12318
0 49.4699 -16.4495 -17.5397
0 60.4726 2.04474 -10.2031
26 39.9806 21.4303 -30.2913
26 40.8286 21.3032 -27.6443
26 3.20949 27.2034 -61.0166
26 37.8377 29.294 -31.0282
26 37.4522 31.5905 -30.7658
0 53.7452 -0.775259 -19.9536
26 40.342 21.827 -32.7151
26 38.3106 24.7997 -34.0661
26 38.6164 23.3264 -31.724
26 41.8278 22.6478 -29.2052
26 38.9784 29.296 -33.6493
26 40.7924 27.9564 -33.2611
26 56.9069 -17.3155 -20.4536
0 49.6581 19.3316 -28.0183
26 40.4253 21.732 -35.4412
26 44.0488 21.3325 -33.9422
26 42.589 24.9298 -35.3196
26 42.1531 24.482 -32.8135
26 44.1193 23.1217 -32.3756
26 38.3681 26.114 -36.0503
26 42.7211 26.6495 -33.5985
26 47.5421 44.4751 -30.6357
26 51.3235 -22.8803 -29.5818
26 51.4345 -26.129 -27.344
26 41.7593 24.6333 -38.2108
26 41.9678 26.6529 -36.7443
26 52.5118 -27.8655 -28.6301
26 50.9517 -22.9201 -34.1519
26 54.0234 -23.8497 -32.2102
26 55.7587 -23.6094 -30.2925
26 59.4737 -24.6383 -26.8285
26 61.4692 -23.2433 -25.2071
26 52.4709 -21.3136 -32.9964
26 61.4856 -23.4513 -22.9327
26 62.8993 -21.9454 -21.8339
26 88.0029 -18.5567 -1.46354
26 94.582 13.6367 3.42932
26 79.169 14.5451 -8.37565
26 57.3768 17.0192 -26.8776
26 53.879 -25.2798 -34.2162
26 59.4657 -23.3208 -29.0115
26 61.0984 -22.9002 -27.4023
26 34.73 24.4686 -51.1165
0 49.7417 -32.4815 -41.8163
0 42.5597 26.4687 -47.9965
0 51.3391 -46.8903 -43.8203
26 105.556 32.7414 1.13908
0 53.4334 -38.3444 -46.0473
0 48.6629 -49.8003 -53.8054
26 32.0703 -28.0355 -68.3763
26 88.5791 30.7468 -18.7088
26 92.0406 -33.8865 -22.4286
26 50.7247 -61.3958 -66.0131
26 84.5173 -31.7638 -38.6963
26 82.2536 -48.185 -46.1819
26 82.4425 -26.8401 -50.36
26 85.4664 -11.1429 -55.7862
26 77.2514 -29.7059 -66.3307
26 81.9076 -9.7214 -65.7196
