ITEM: TIME
40.0
ITEM: TIMESTEP
0
ITEM: NUMBER OF ATOMS
196
ITEM: BOX BOUNDS pp pp pp
-172.2 172.2
-172.2 172.2
-172.2 172.2
ITEM: ATOMS type x y z
26 54.1949 90.6153 -88.2664
26 60.5775 95.5623 -61.5857
0 69.8591 90.7342 -56.3946
26 -0.0420376 3.2166 -46.0269
0 78.8263 89.703 -46.4066
26 55.4129 60.5316 -37.0569
0 77.5886 85.3217 -50.6964
0 80.5384 87.9378 -43.1774
26 92.2079 98.1187 -61.6596
26 -4.99252 2.85084 21.3656
26 34.3448 40.879 -20.1987
0 45.1483 50.7902 -24.312
26 55.4195 58.973 -38.7015
26 57.1452 59.2027 -37.0897
0 79.9784 81.3075 -51.6069
0 77.3854 81.4241 -47.6173
0 79.3007 83.5564 -47.4672
26 77.7268 89.5621 -3.68158
0 86.1829 92.3859 -41.1875
0 81.3009 79.6923 -45.538
0 85.5213 83.8068 -48.0774
26 3.22878 -6.60446 -32.8327
0 5.52099 1.58286 0.411566
26 33.1669 22.3565 -57.1134
0 62.6906 57.0541 -35.2907
0 58.539 57.7712 -19.9426
0 60.4544 59.9035 -19.7925
26 79.9304 75.8078 -41.1764
26 8.93912 2.98434 5.13434
0 65.9973 62.4029 -16.263
0 83.6907 75.678 -46.4484
26 78.4436 78.4483 -4.54855
0 87.1318 80.0928 -43.3085
0 96.9639 91.5383 -29.5098
26 96.9016 95.1704 -11.5215
26 94.7634 95.1498 -10.4382
0 103.846 100.368 -23.2302
26 41.062 25.5619 -25.7506
0 58.4534 44.9943 -29.4326
26 57.8475 46.9246 -21.6224
0 64.1668 54.2741 -14.634
0 64.2684 56.2229 -16.1736
0 67.7422 57.7548 -27.3821
26 75.1345 65.167 -20.266
0 60.9809 50.6432 -4.72562
0 66.3701 54.3075 -15.784
26 75.0631 54.6118 -61.8105
0 80.4553 66.9847 -18.873
0 90.8769 71.5805 -52.4984
0 97.7952 88.1244 -19.0617
26 112.3 92.6208 -64.3311
0 43.4706 22.7232 -15.806
26 60.5259 42.894 -14.4658
26 58.3782 42.9473 -13.3501
26 84.4989 66.666 -25.5394
26 83.3814 67.3723 -21.9454
26 111.423 87.7939 -62.9672
26 112.208 90.7141 -62.7749
26 107.813 93.663 -19.6827
26 52.3973 29.8132 -14.7962
26 55.5642 31.9247 -13.6955
0 80.5402 60.9883 -17.0939
0 97.4871 71.6808 -55.9482
0 21.5728 -5.49459 5.88916
26 41.8941 12.0875 -22.6156
26 54.0517 24.672 -14.6625
26 54.0513 24.6645 -11.6569
26 54.1351 26.6231 -16.1704
26 54.0773 26.5094 -13.1101
26 55.9087 26.9212 -11.6085
26 55.8155 27.0192 -8.63114
26 54.0706 30.1785 -13.0431
26 57.7998 29.2012 -11.5982
26 60.3132 34.4873 -13.2347
0 29.1327 1.08589 8.02914
26 53.9227 22.7611 -13.1726
26 52.8844 24.4643 -9.50327
26 54.5325 22.9418 -9.37957
26 55.7275 25.0307 -10.0939
26 57.7069 27.2866 -10.0081
26 61.6408 31.1817 -12.8396
26 92.578 60.4689 -26.3089
0 34.9964 -1.39643 -4.08974
0 41.4889 7.58313 5.02956
0 41.0993 7.73323 7.8692
0 47.3366 15.9289 3.94027
26 98.5916 59.8549 -39.8938
0 105.151 72.034 -21.5534
26 27.2022 -20.0006 -37.5255
0 36.6757 -0.278899 13.4878
0 34.0827 -0.162231 17.4774
0 39.472 3.50202 6.41905
0 46.2853 7.49989 -0.109992
0 87.32 49.0956 -16.9855
26 92.6001 53.2862 -19.3227
26 97.1581 59.1118 -37.2443
26 32.541 -17.7396 -28.8914
0 36.1157 -6.90919 5.05833
0 36.6069 -5.1105 0.679106
0 43.0307 -0.962525 -3.01029
0 42.641 -0.812429 -0.170656
0 44.946 1.16979 -2.8602
0 44.5564 1.31989 -0.020559
0 44.1668 1.46999 2.81908
0 43.7771 1.62008 5.65872
0 46.8614 3.30211 -2.7101
0 46.4718 3.45221 0.129538
0 48.8783 7.38322 -4.09959
0 47.7095 7.83352 4.41933
26 72.398 26.7516 -30.2137
0 38.2502 -11.7074 -8.90033
0 40.9121 -6.99243 -0.0812228
0 45.1324 -2.87789 -2.62067
0 47.0478 -0.745572 -2.47057
0 44.8444 -0.779 -1.32061
0 45.8789 -0.295281 6.04834
0 48.9632 1.38675 -2.32047
0 46.7598 1.35332 -1.17052
26 107.069 62.981 -12.8503
26 36.5527 -8.04922 29.0533
0 54.8957 3.73602 -1.63065
26 89.8671 41.7718 -14.0421
26 124.647 74.2997 -41.5215
26 49.2254 -13.3618 -24.4176
26 47.3908 -11.9169 -24.4768
0 47.1326 -6.74205 -0.691455
26 49.359 -15.1576 -26.1273
26 51.4668 -11.7358 -25.2811
0 55.727 0.322152 8.81748
0 58.8961 -3.9923 2.22777
26 35.1583 -49.9561 -42.7928
0 55.9454 -25.3817 -13.0022
26 48.0155 -34.4171 12.4924
26 42.1044 -39.7252 38.8543
26 5.2818 -96.2197 6.32132
26 60.4557 -31.1239 24.1885
26 59.6625 -47.9179 -11.9951
26 46.7438 -64.9605 -4.88616
26 119.62 11.6952 -20.8353
26 168.848 55.5074 -63.4671
26 72.6346 -42.5889 2.62381
0 73.4206 -50.8989 -10.7061
0 70.2675 -57.4125 -15.146
0 71.6916 -57.0789 -10.6167
0 77.8274 -50.832 -13.0061
0 71.1316 -63.7092 -19.0462
0 68.1489 -63.4424 -12.217
0 73.1485 -59.628 -20.4357
26 81.9599 -56.6806 -37.4942
0 84.896 -46.0502 -6.48686
26 96.4679 -38.2723 -30.6439
0 64.4358 -76.5863 -25.0863
0 72.0645 -65.1742 -10.1376
0 77.0641 -61.3599 -18.3564
0 76.2848 -61.0597 -12.6771
0 73.6918 -60.943 -8.6875
0 68.5545 -74.4206 -26.0862
0 79.1659 -63.2752 -17.9667
0 78.3866 -62.9751 -12.2875
0 78.4882 -61.0263 -13.827
0 75.2335 -69.4887 -16.7273
0 77.1489 -67.3564 -16.5773
0 81.2677 -65.1906 -17.5771
0 80.59 -62.9416 -13.4374
0 80.2004 -62.7915 -10.5978
26 57.617 -85.5327 24.6593
0 64.5038 -90.5281 -19.9885
0 67.1985 -88.6959 -25.5177
0 75.5376 -82.4156 -29.057
0 74.0479 -76.9837 -4.88974
0 68.8418 -95.2928 -35.0971
26 68.9392 -89.4856 -7.71459
26 71.1298 -87.6349 -10.1404
26 68.9785 -87.2452 -6.81676
26 71.1141 -85.6616 -11.4871
26 73.0277 -85.0897 -7.89206
26 72.1898 -83.4234 -10.9891
26 71.9722 -91.2783 -5.61795
26 73.2665 -89.683 -9.68087
26 71.1177 -89.6152 -8.65952
26 73.1818 -87.2944 -8.88016
26 77.5657 -86.352 -11.5585
26 75.2367 -86.1598 -10.733
0 82.4718 -76.6998 -6.64992
26 75.2643 -88.4146 -9.38949
0 85.2177 -96.7547 -3.76259
26 78.1318 -113.028 1.76971
26 80.0363 -106.908 0.394054
26 72.9926 -115.158 29.5942
26 84.6019 -111.588 -25.5132
26 69.012 -130.223 2.22807
26 86.6607 -114.698 -20.779
26 71.2447 -130.15 2.55122
26 74.6723 -125.738 5.74718
26 111.907 -93.3307 33.0905
26 117.751 -114.36 -17.2348
