ITEM: TIME
40.0
ITEM: TIMESTEP
0
ITEM: NUMBER OF ATOMS
180
ITEM: BOX BOUNDS pp pp pp
-172.2 172.2
-172.2 172.2
-172.2 172.2
ITEM: ATOMS type x y z
26 24.8243 3.57754 65.9717
26 12.3019 -26.4152 63.8778
26 30.4754 6.31431 51.1498
0 52.86 9.5118 52.0976
26 45.057 23.5182 41.6367
26 62.5374 -4.19906 58.6577
26 87.8543 4.74947 60.8709
26 62.11 29.6627 43.9449
26 112.173 27.3998 57.7512
26 65.6258 -20.5286 64.3858
26 65.2983 -19.5253 62.269
26 44.3856 17.3388 35.1958
0 62.1947 -7.26325 51.7731
0 65.1772 -8.35874 48.2293
26 70.3642 -22.8969 52.9158
26 56.1143 -2.34027 39.9606
26 73.4319 -22.5234 53.7907
26 108.131 -0.984155 52.6069
0 45.5369 11.7554 23.7383
26 90.2577 -19.3736 48.8739
26 37.8522 42.3123 0.907852
0 63.0273 -4.92163 30.8287
0 63.8143 -0.451226 25.46
0 67.5815 6.85114 22.8864
0 68.8373 9.28526 22.0285
0 68.2461 -5.85688 26.2118
0 50.9924 5.87453 15.0379
0 73.2282 -1.84653 25.6783
0 -0.308248 -0.269942 -0.668015
0 65.0316 -7.6707 21.1614
0 63.8575 1.34745 16.2232
0 71.9749 -8.20811 20.1974
0 46.0535 3.66287 6.33459
0 68.2893 -4.0582 16.9749
0 52.2505 4.3812 7.84122
0 57.1918 2.6654 10.2057
0 63.3888 3.38373 11.7124
0 68.5645 0.649801 16.3323
26 73.0991 -61.4417 43.4962
0 70.2504 -8.60596 16.5445
0 72.7211 -9.46385 17.7267
0 30.7609 10.8465 -5.26978
26 72.7028 31.4827 -3.08497
0 69.9753 -13.314 17.1871
0 72.4459 -14.1719 18.3694
0 47.7803 0.13325 3.6487
0 58.9186 -0.864213 7.51985
0 61.3893 -1.72211 8.70211
0 55.233 3.2857 4.29743
0 59.94 2.58805 4.40655
0 62.4106 1.73015 5.58881
0 51.5475 7.43562 1.07501
0 56.4888 5.71982 3.43954
0 57.7853 13.8801 -0.316412
0 67.4744 17.1928 -0.740821
0 49.5071 -3.39637 0.962803
0 53.2743 3.906 -1.61088
0 55.9793 2.02996 1.82678
0 60.6862 1.33231 1.9359
0 63.1569 0.474413 3.11816
0 57.235 4.46408 0.968887
0 91.0802 -10.2182 13.6524
26 31.3326 40.3208 -28.4299
26 88.3263 -33.8255 21.5635
0 48.2537 -9.75795 -4.51811
26 62.7416 -9.11687 -3.03874
26 62.9968 -10.0552 -0.820824
26 12.5602 11.4748 -27.8052
26 76.8963 -9.70262 1.52219
26 81.3888 -6.17488 3.69899
26 113.82 -21.4391 15.2601
0 65.1612 -2.27466 -6.54919
26 105.871 -48.1159 23.325
26 33.5522 -20.8959 -11.6021
26 110.943 -24.2679 12.4985
26 112.378 -22.8431 13.8743
26 35.6995 -20.6608 -12.6503
26 126.985 -35.3478 21.4017
26 31.6923 -33.4242 -11.4751
26 79.5205 -13.9592 -6.99249
0 85.9093 -15.3392 -3.64514
0 94.3427 -14.4606 -3.21166
26 48.9602 28.1389 -37.681
26 140.369 -28.8282 13.7718
26 34.0232 28.7656 -45.716
26 119.549 1.438 -7.78561
26 106.369 22.4223 -22.5021
26 126.825 -57.1933 21.5931
0 130.302 -46.161 17.0929
0 104.38 -34.2901 3.23009
26 87.775 -22.2049 -8.64013
26 89.996 -21.3374 -7.86058
26 142.255 -30.874 15.5008
0 89.9541 -7.25627 -13.2003
26 95.8174 21.1924 -27.5226
26 92.987 22.4523 -27.479
26 11.0955 -46.7145 -21.9424
0 128.577 -46.5589 13.44
0 131.048 -47.4168 14.6222
0 130.067 -45.1429 14.8375
0 132.304 -44.9827 13.7643
0 131.323 -42.7088 13.9796
0 132.579 -40.2747 13.1217
0 135.049 -41.1326 14.3039
26 73.4689 -15.7774 -18.0384
26 89.3945 -21.3166 -10.33
0 103.217 10.1031 -21.3518
26 78.067 -36.4437 -7.75189
26 90.7907 -31.6283 -9.9271
26 93.9501 -30.4357 -7.67487
26 145.706 -48.4753 16.2181
0 135.796 -42.3883 11.8333
0 140.737 -44.1041 14.1978
0 45.6375 -8.21201 -32.7683
0 67.639 -14.9149 -24.3833
26 76.2591 -15.55 -20.7238
0 76.541 -16.0726 -19.439
26 80.9149 -17.6534 -19.9771
26 79.3914 -13.9401 -22.2982
0 97.766 8.129 -25.3291
0 102.707 6.41321 -22.9646
26 97.6066 -45.6492 -2.97584
0 133.99 -54.2384 13.9765
0 122.892 -47.5148 7.20728
0 109.09 -38.9152 -2.99959
0 111.56 -39.7731 -1.81733
26 92.0413 -30.9008 -11.966
0 137.522 -45.9179 9.14739
26 150.799 -50.8989 17.9958
26 151.858 -52.0225 15.7413
0 141.483 -45.3598 11.7272
0 70.8558 -17.0286 -25.6717
26 79.864 -17.9156 -22.1758
0 121.759 -32.7705 -0.628983
0 78.543 -14.8943 -22.7676
26 48.526 0.169328 -41.1344
0 85.7614 -10.7237 -24.3743
26 119.174 -55.1541 4.09564
0 65.3642 -24.7288 -26.751
0 132.072 -47.892 5.17012
0 51.7961 -17.1473 -34.7024
0 108.855 -37.897 -5.25499
26 147.808 -52.1056 12.9208
26 150.01 -51.8711 11.9301
0 56.7782 -13.1369 -35.2359
0 89.0191 -7.11117 -28.5607
0 46.3044 -24.8475 -35.7816
0 62.3841 -27.5607 -29.546
26 153.329 -53.6353 10.3477
26 80.5243 -19.829 -28.9201
26 117.217 11.7579 -32.1601
0 50.6954 -35.9793 -32.1318
0 89.4901 -13.0749 -30.3887
0 83.3339 -8.0671 -34.7934
26 56.9714 -65.4324 -17.8274
26 114.731 -65.0188 -0.565316
26 132.288 -61.1917 3.79079
26 105.157 -38.2742 -16.9218
26 108.924 -33.6827 -19.858
26 108.433 -55.9623 -8.66776
26 79.6842 -43.0395 -26.4332
0 54.3017 -55.5089 -29.4521
26 58.6266 -44.7044 -36.2294
26 126.389 -57.1558 -7.67663
26 98.5377 -42.4002 -23.6138
26 60.291 -44.0235 -37.7321
26 63.1596 -41.7442 -37.9197
0 53.9555 -36.2942 -42.6571
0 66.156 -28.1133 -44.7973
26 44.337 -28.6821 -51.8907
0 97.7649 -42.9558 -31.0406
26 100.98 -19.5226 -43.5962
26 77.3753 -2.64259 -61.8772
26 127.258 -35.6423 -31.6258
26 104.279 -68.7739 -25.1352
26 105.276 -52.6835 -38.0611
26 106.692 -51.2666 -36.7158
26 82.3241 -30.3051 -53.9531
26 102.936 -59.824 -40.0449
26 106.476 -60.5084 -46.2216
