ITEM: TIME
40.0
ITEM: TIMESTEP
0
ITEM: NUMBER OF ATOMS
238
ITEM: BOX BOUNDS pp pp pp
-172.2 172.2
-172.2 172.2
-172.2 172.2
ITEM: ATOMS type x y z
26 -8.65203 8.21832 42.0332
26 34.2208 47.0182 -17.3521
26 32.58 47.2481 -15.606
26 34.7587 47.1443 -14.7398
26 5.44593 13.0712 14.5505
26 34.1501 41.946 -16.3385
26 21.1897 19.4696 15.7764
0 31.1165 29.6601 -1.48352
26 75.4693 64.5361 28.881
0 1.58571 0.271868 -0.879952
26 33.8412 21.8847 31.0578
26 40.6232 33.9643 -13.9973
26 41.0678 33.6937 -11.6876
26 43.1055 35.662 -16.0662
26 44.8048 35.3039 -14.3547
26 41.0124 36.0088 -12.7811
26 45.4944 37.4354 -13.4952
26 25.0321 18.8139 -35.4007
0 41.0069 29.4074 -4.15694
26 46.6913 36.3949 -15.2817
0 45.5734 24.9213 0.835597
26 39.6471 18.144 -32.8582
26 61.8104 39.6313 -32.8927
0 23.3011 -2.32471 -6.57543
0 46.3054 19.2341 -8.24465
0 47.6999 18.6271 3.13497
0 32.5555 1.00841 1.1554
0 36.1368 3.13023 -3.5139
0 36.4855 2.97847 -0.668989
0 38.2281 5.09012 -3.66564
0 38.5768 4.93837 -0.820737
0 51.4732 16.546 1.11369
0 52.0745 18.3439 5.47949
0 30.6562 -5.15442 3.95517
0 35.5355 1.33226 -7.8797
26 43.9274 -0.772669 39.485
0 41.1127 4.64504 3.19643
0 43.648 7.2221 -10.0076
0 44.3453 6.9186 -4.31778
0 44.2493 9.02007 -5.64178
0 44.9466 8.71657 0.0480281
0 47.1339 8.57499 1.22029
0 45.2953 8.56482 2.89293
0 47.0379 10.6765 -0.103719
0 49.5738 10.3831 3.91345
0 50.5232 14.8998 -6.09703
26 15.9847 -21.2659 -14.635
0 27.8069 -12.9635 -0.455784
0 31.5449 -6.79047 -4.92819
0 40.7033 -1.35587 1.47864
0 40.2587 0.897347 -2.69028
0 42.7946 0.604018 1.32689
0 44.0926 4.96888 -5.83868
0 47.6745 4.2203 6.71321
0 46.1839 6.92877 -5.99042
0 46.8812 6.62527 -0.300611
0 47.2299 6.47352 2.54429
0 48.9725 8.58517 -0.452359
0 51.1598 8.44359 0.719901
0 52.9024 10.5552 -2.27675
0 53.5997 10.2517 3.41306
0 53.1551 12.505 -0.755854
0 53.5037 12.3532 2.08905
0 57.085 14.475 -2.58025
0 60.2223 15.9797 5.80272
0 62.3135 17.9395 5.65098
0 49.2604 2.28075 3.51966
0 49.6091 2.129 6.36457
0 51.6044 6.19037 4.88881
0 54.1403 5.89704 8.90598
0 55.0897 10.4137 -1.10449
0 46.9165 -1.62886 2.15051
0 51.195 0.189453 3.17102
0 55.7263 3.95749 5.71243
0 61.3029 10.1407 -0.432621
0 61.5555 12.0904 1.08828
26 16.6769 -35.4326 3.33403
0 57.2162 4.11941 1.19488
0 59.3075 6.0793 1.04313
0 63.5861 7.89762 2.06365
0 63.8388 9.84734 3.58455
0 68.37 13.6154 6.12596
26 98.1183 34.195 30.4092
26 103.749 42.8681 -8.85959
26 61.6355 -7.33452 35.4642
0 61.4341 -0.214939 3.34251
0 65.7121 4.47377 -12.8582
0 66.6626 3.24959 11.5737
0 69.102 7.92813 -2.95429
0 71.6379 7.6348 1.06287
26 44.0517 -21.4847 5.05468
0 71.0366 5.83683 -3.30293
0 73.1279 7.79672 -3.45468
26 100.431 28.9016 9.46689
0 73.7644 1.34056 3.36225
0 75.0625 5.70542 -3.80332
26 100.233 27.0117 7.96526
26 37.7511 -33.3462 -17.9809
0 74.2091 -0.912662 7.53116
26 92.3598 16.819 -15.5629
0 66.4805 -15.2084 14.9551
26 102.521 16.3957 37.5523
0 64.2325 -21.2195 14.9099
26 102.963 4.67149 68.7121
26 81.4087 -9.2414 14.4543
26 82.0806 -7.42675 12.3589
26 83.4585 -5.4273 6.70839
26 83.9336 -5.62644 9.43656
26 83.8588 -3.59285 8.17158
26 85.4476 -1.92924 8.70272
26 112.9 16.2812 30.3834
26 64.6817 -23.1698 -17.8761
26 81.7377 -11.6378 12.6974
26 84.0333 -9.70404 9.3438
26 83.1087 -9.52809 12.8651
26 85.6029 -7.96389 9.15858
26 85.0935 -7.62823 12.6797
0 85.0841 -4.90282 -2.70161
26 87.0825 -6.16594 9.30459
26 88.7998 -4.33208 8.97914
26 96.2917 2.9632 4.21786
0 104.002 7.76434 14.4779
0 110.973 13.3405 19.7124
26 115.005 16.1863 31.568
0 58.7871 -37.7583 24.8301
26 76.1799 -28.8066 67.3024
26 81.6612 -13.5021 11.0952
26 83.538 -11.6 11.0193
26 87.1094 -9.82683 12.3313
26 88.8178 -6.90488 7.7162
26 95.6982 -7.60989 54.4127
26 97.7726 0.278597 6.49492
26 98.0244 3.80632 2.15014
26 100.958 2.16699 4.37582
26 98.7871 1.87013 3.37057
26 100.008 3.97365 3.21705
0 69.1829 -34.1115 25.1985
26 83.2048 -15.2259 -9.42421
26 57.1244 -49.4127 26.6493
26 56.242 -48.3042 28.4022
26 58.7131 -40.9336 -3.52296
26 62.3719 -38.2026 0.425203
0 66.3336 -41.9205 20.7875
26 77.9759 -32.5666 17.6428
26 54.6914 -50.9271 -25.3162
26 86.8187 -33.253 46.9607
26 87.413 -30.2547 44.1161
26 101.431 -12.1798 18.9148
26 113.311 -3.57635 22.1659
26 67.0898 -52.2801 46.2169
26 80.3314 -37.8769 21.4972
26 92.8436 -36.632 47.4319
26 90.0105 -32.6184 19.8271
26 135.201 15.3667 -41.1048
26 80.2258 -55.5243 49.5171
0 90.6468 -44.3986 52.4245
26 98.4679 -38.5173 61.1052
26 131.418 1.33102 -0.833077
26 136.491 7.817 -12.335
26 91.9011 -53.2447 77.1476
26 123.989 -29.3463 123.663
26 126.713 -8.83892 15.9875
26 140.741 -11.9665 89.2331
26 154.65 -9.51459 109.441
26 83.8173 -58.1616 -15.5107
26 104.463 -55.8951 97.2098
0 102.916 -48.9957 53.5713
0 114.514 -38.8826 45.4501
0 112.676 -38.8928 47.1228
26 123.865 -35.4764 82.8202
26 134.282 -31.509 128.864
26 101.181 -58.0505 62.6833
0 104.851 -51.087 53.2227
0 114.358 -42.9338 45.2532
0 119.934 -36.7506 39.1082
0 118.444 -36.9125 43.6257
0 112.362 -46.9951 46.729
0 116.292 -45.0251 44.9046
26 115.56 -45.7871 51.4053
0 118.636 -41.1155 46.2738
0 121.869 -38.8419 38.7596
0 123.96 -36.882 38.6078
26 151.704 -16.3963 75.3874
0 112.65 -53.2996 50.701
0 115.787 -51.7949 59.084
26 126.818 -51.2049 110.669
0 117.782 -44.8632 40.3871
26 124.725 -39.6921 54.2497
26 101.565 -62.9833 29.8627
26 128.214 -52.2192 100.701
0 119.717 -46.9545 40.0384
26 127.151 -49.1973 102.839
0 123.899 -43.0347 39.7349
26 129.355 -42.8851 63.0266
26 118.734 -65.348 115.219
26 119.453 -53.476 60.6519
26 130.503 -52.4121 101.312
26 131.734 -49.9795 98.6237
26 126.861 -45.9745 56.596
0 143.359 -40.463 96.8497
0 146.496 -38.9584 105.233
26 134.325 -52.8664 100.745
26 135.731 -50.1766 97.9597
26 136.709 -50.0075 100.668
0 129.86 -45.2574 38.8859
26 135.689 -42.1293 37.9502
0 145.294 -42.5543 96.501
0 145.991 -42.8578 102.191
0 148.335 -38.9482 103.56
0 148.684 -39.0999 106.405
26 167.391 -23.9216 113.581
26 137.93 -48.4521 67.3924
0 144.092 -49.0206 104.991
26 135.61 -44.4926 35.3434
26 139.049 -43.59 39.3428
0 147.926 -44.9491 101.842
0 148.876 -43.3029 109.053
0 153.502 -38.7659 95.6972
0 158.034 -37.8683 115.46
26 173.032 -20.5388 95.149
26 113.085 -68.8368 46.2238
0 148.022 -47.0506 103.166
0 146.627 -43.5732 74.5654
0 151.952 -45.0805 101.342
0 151.951 -42.2101 84.1206
0 153.947 -41.0191 99.8661
0 156.831 -38.5938 89.507
0 157.18 -38.7456 92.3519
0 162.408 -35.281 100.583
0 156.77 -44.7465 90.6341
0 157.119 -44.8982 93.479
0 163.045 -41.7372 107.4
26 162.515 -37.0671 64.9953
26 172.782 -34.4888 105.869
26 183.071 -30.0048 113.563
26 156.719 -43.0489 3.11863
26 181.523 -50.1837 77.1479
26 199.993 -34.2136 78.0207
