ITEM: TIME
40.0
ITEM: TIMESTEP
0
ITEM: NUMBER OF ATOMS
80
ITEM: BOX BOUNDS pp pp pp
-96.145 96.145
-96.145 96.145
-96.145 96.145
ITEM: ATOMS type x y z
26 13.2692 67.6767 -16.9675
26 -31.2423 43.3833 11.778
26 6.15239 36.9275 5.07371
0 -6.31089 25.2883 18.7729
26 5.51341 30.1861 13.772
26 23.9045 30.3527 17.3947
26 74.3925 61.4236 -35.1301
26 -19.8307 14.9604 32.6352
26 19.1874 20.4438 39.7681
26 -3.72164 10.8811 39.8202
26 12.7773 20.5538 17.3021
26 5.69035 13.5434 27.7531
0 19.1781 16.5619 16.4717
26 53.4879 29.8722 -3.41797
26 77.7369 23.1644 11.7929
0 10.0226 10.9462 7.06295
0 13.7805 10.5514 13.4914
26 50.7627 13.9626 19.3539
0 -0.492888 2.61747 15.261
26 51.1654 9.84087 19.454
0 15.706 4.81738 9.13061
26 27.6216 4.36871 9.68675
0 -0.226098 1.06033 -0.0469506
26 28.9705 4.14062 3.01567
26 31.798 2.73192 5.42909
26 30.8224 3.1822 7.61887
0 41.3045 5.96245 1.92571
0 43.4455 4.27591 6.97763
26 -1.77305 -9.91674 16.4992
0 27.5777 0.16356 2.5459
26 32.3967 2.5641 0.607592
26 20.7832 -0.279821 -6.79808
26 23.0927 1.77668 -7.37846
26 27.7862 -2.80824 3.96905
0 29.1078 -3.30275 4.0014
26 29.5992 -1.04967 0.148657
26 31.2499 -1.10192 5.24595
0 46.3997 3.16729 -4.42784
0 49.0229 3.97112 -5.27117
0 53.3048 0.598031 4.83268
0 53.1989 6.42204 -9.48378
26 24.0032 -11.9733 21.2195
26 29.6115 -3.9099 2.86372
0 49.5468 0.992778 -1.5958
0 61.5281 6.21048 -13.0842
26 68.1191 16.1183 -34.5502
0 33.1325 -5.25464 -4.87811
0 33.6148 -2.76427 -10.7734
0 34.1613 -0.629201 -11.9228
0 36.238 -1.96045 -11.6167
0 39.9959 -2.35519 -5.18821
0 42.6191 -1.55137 -6.03154
26 70.7188 -1.39202 5.72092
26 85.4529 2.61636 4.16262
26 7.96658 -11.7354 -3.63275
0 38.8386 -6.27003 -7.63523
0 42.0083 -3.33114 -9.62796
0 45.1554 -5.50565 -6.79592
0 45.6377 -3.01528 -12.6912
0 37.7455 -10.5402 -5.33641
0 36.1511 -6.71856 -11.5377
0 39.2982 -8.89307 -8.7057
0 41.9857 -8.44455 -4.80319
0 43.5384 -6.79745 -8.17247
0 47.756 -9.81524 -2.81447
0 48.8265 -10.6585 -0.288505
0 24.9415 -5.88961 -26.0773
0 41.8988 -13.2027 -4.72424
0 54.0502 -14.1643 2.84962
0 52.263 -9.27676 -17.5892
26 70.6098 4.23499 -42.8423
26 6.79503 -24.3534 -9.88935
0 42.2298 -15.1151 -15.2864
0 52.7226 -11.8998 -18.6597
26 54.3972 -14.0229 -12.7163
26 57.4104 -14.4708 -14.1823
26 42.1152 -36.699 12.5584
26 42.6648 -34.6621 11.4186
26 101.038 -23.1718 8.49762
26 71.6905 -37.0651 -0.851922
