ITEM: TIME
40.0
ITEM: TIMESTEP
0
ITEM: NUMBER OF ATOMS
86
ITEM: BOX BOUNDS pp pp pp
-96.145 96.145
-96.145 96.145
-96.145 96.145
ITEM: ATOMS type x y z
26 -3.94387 -10.232 22.4727
26 12.9449 2.16218 30.4743
26 2.13613 16.4174 8.55897
26 12.9009 -8.22357 16.1201
26 21.4558 2.75794 16.73
26 113.086 -21.7246 61.8553
26 49.4706 -10.2372 25.9188
0 -0.0820625 0.490857 0.0246532
0 15.0993 2.73611 5.92191
26 95.2896 7.23502 48.2998
26 16.2852 -4.09056 5.44578
0 11.9386 5.64225 0.349002
0 14.4374 5.33247 1.73257
0 31.9294 3.16401 11.4175
0 32.2604 1.86583 13.5122
26 104.884 -22.5666 52.7138
0 12.549 -1.78661 0.566282
0 33.5782 1.34666 11.0159
26 -6.86094 9.31318 -11.1314
26 107.28 -23.3836 51.0135
0 8.53809 -0.38804 -6.79183
0 113.821 -14.697 53.4125
0 11.8871 0.809753 -3.62306
26 26.3751 -1.5828 5.28994
0 119.007 -11.2126 53.7755
26 66.5347 -9.93619 23.3923
26 86.8407 -13.7308 36.5306
0 8.20714 0.910141 -8.8865
26 102.234 -34.8651 45.7283
26 4.00211 -0.491888 -14.9361
0 114.146 -11.3216 44.6322
26 107.641 -17.1453 39.9611
0 62.4687 -8.14116 13.3905
0 102.45 -13.0976 35.5275
26 106.655 -14.7509 40.5053
26 48.7907 -0.610894 5.45636
26 21.9833 -0.307167 -11.8544
26 144.772 -16.9914 57.8917
0 105.137 -9.30349 34.507
0 113.672 -4.62132 38.0387
26 47.1153 8.4871 -1.50089
0 109.81 15.9483 31.7218
26 107.758 37.4724 23.6088
26 130.841 -34.4511 49.2132
26 24.4212 -2.61954 -13.6167
26 134.039 -15.4274 47.721
26 63.8221 -0.460128 5.06242
26 110.457 38.569 24.9756
26 130.668 39.1876 32.0072
0 105.274 -10.0321 28.1308
0 50.0653 12.4198 -7.33317
0 110.038 4.98511 25.8724
26 102.121 -23.1571 23.3364
0 128.563 -16.145 38.396
0 74.626 -3.71833 7.33867
26 72.5507 37.8662 -4.96903
26 78.5321 -21.0312 9.72447
26 137.232 -13.9595 39.3193
0 45.0161 8.2069 -14.0724
0 84.4272 -4.38784 4.40206
0 99.3291 3.98809 12.1767
0 106.826 3.05875 16.3274
0 108.235 -7.69503 14.3578
26 32.0768 5.29185 -28.7367
0 74.1008 -1.85053 -3.22686
0 86.2642 -2.10125 1.59629
0 87.3025 3.51025 0.977364
0 95.6492 4.08848 6.91326
0 111.35 9.13949 12.5011
0 83.1034 0.804886 -3.97662
0 85.9332 -0.803075 -0.498382
0 100.926 -2.66176 7.803
0 89.9896 7.3044 -0.0432035
0 92.6767 11.0986 -1.06377
0 120.683 10.4967 13.846
26 145.263 12.7073 27.9627
0 83.1092 25.378 -7.43423
26 121.422 -40.7509 23.2405
26 127.637 -2.11798 17.703
0 92.9561 4.96788 -2.94116
26 129.17 -1.23299 14.944
0 95.6432 8.76203 -3.96173
26 84.7069 0.694089 -22.0604
26 121.115 -3.27303 -3.71683
26 109.777 28.1243 -17.9429
26 111.011 28.5033 -19.8755
