ITEM: TIME
40.0
ITEM: TIMESTEP
0
ITEM: NUMBER OF ATOMS
68
ITEM: BOX BOUNDS pp pp pp
-96.145 96.145
-96.145 96.145
-96.145 96.145
ITEM: ATOMS type x y z
26 7.89702 -13.539 -44.3852
26 41.8979 -9.38948 -52.3007
26 47.693 49.1169 3.32045
26 27.8626 1.35804 -16.8996
0 16.7503 -8.04946 -8.64915
0 11.9494 -3.10267 -2.74532
0 3.12643 -0.100446 1.51713
26 12.303 -23.3414 -15.7663
26 31.2013 15.9947 5.32134
26 24.2108 -10.9585 -8.42892
0 15.2658 -4.96443 0.1162
0 16.9158 -2.80804 1.04633
0 18.5657 -0.651644 1.97647
0 33.9884 4.97171 1.43456
0 31.6162 5.18354 0.723305
0 29.466 6.11367 2.3812
0 27.3157 7.0438 4.0391
26 19.5101 12.619 11.8052
0 78.9416 11.3574 -13.4048
0 16.21 -6.61436 2.26647
0 46.1113 6.28227 -0.967622
26 32.4234 12.5507 8.76398
0 90.6371 5.05683 -19.5441
0 83.1856 14.0203 -9.39429
0 84.8356 16.1767 -8.46416
0 91.7137 20.9974 -9.7008
0 84.1298 12.3703 -7.24402
0 81.2573 15.6687 -5.36724
0 82.9072 17.8251 -4.43711
0 80.757 18.7552 -2.77921
26 8.13655 -5.91284 14.9851
26 49.664 -3.04367 -0.984075
0 82.2015 14.0188 -3.21697
0 82.4234 14.7371 -0.847825
0 86.2236 15.9633 -1.57559
0 84.0734 16.8935 0.0823086
0 93.824 18.4159 -3.03112
0 100.702 23.2366 -4.26777
0 88.3174 19.5563 4.09284
26 115.323 29.2016 -2.18891
26 70.333 -5.19959 -2.67146
26 71.5197 -3.53442 -1.49591
26 82.6307 5.28692 -1.48434
0 86.9624 7.42057 -0.793222
0 98.1411 10.3811 -5.34567
0 91.19 16.258 2.21606
0 98.5119 22.5153 5.71771
26 69.0153 -9.05875 -1.11844
26 70.8041 -7.36891 -1.72299
26 66.7195 -5.50672 -0.840986
26 73.6047 -4.20748 -0.482503
26 72.4699 -5.67679 -1.90101
26 68.8455 -4.37666 0.862007
26 71.5852 -1.61584 1.76781
0 96.935 9.66126 -1.5375
0 99.9565 17.7789 5.27995
26 37.5514 14.4441 33.046
26 113.884 -14.8658 -19.0641
26 84.2163 21.7736 23.8543
26 82.8218 31.003 31.6135
26 74.435 -36.61 -15.9035
26 87.5505 21.866 22.5614
26 90.4583 21.9566 23.0649
26 35.9107 -49.6773 -4.04672
26 117.721 13.2945 8.61071
26 117.441 15.0039 10.0548
26 66.7517 -27.8805 4.00531
26 115.963 13.9178 14.4647
