ITEM: TIME
40.0
ITEM: TIMESTEP
0
ITEM: NUMBER OF ATOMS
92
ITEM: BOX BOUNDS pp pp pp
-96.145 96.145
-96.145 96.145
-96.145 96.145
ITEM: ATOMS type x y z
26 35.3969 57.0463 24.5703
26 54.932 61.4872 30.2641
26 49.9808 58.7597 5.35857
26 69.5349 64.2286 22.6343
26 44.9458 50.5793 22.6193
0 49.2537 51.7581 26.0118
0 51.4522 53.2604 17.3351
0 43.5164 47.2595 27.5767
26 65.8767 56.4132 16.0315
0 57.0228 51.4213 12.7319
26 34.0944 39.3543 -18.261
26 62.2323 49.5241 22.5068
26 42.8488 33.735 50.8981
26 63.8995 43.2189 21.4103
26 46.2699 32.6292 11.2553
26 -0.735058 5.92106 34.8924
26 9.8084 11.6453 -27.1656
26 2.50332 6.38185 -9.79799
26 52.805 26.1816 43.1951
0 0.340603 0.106093 0.877684
0 -1.96561 -3.11487 -22.1001
0 29.6925 9.30225 9.90703
26 33.3322 10.3603 42.1307
0 81.3106 32.2621 26.9612
26 93.3605 39.1006 60.5111
0 12.3227 -1.76748 -4.00577
0 15.3951 -0.808869 7.38188
0 43.6983 13.1533 6.5275
26 12.2885 -4.84987 -21.5179
26 15.786 -4.90036 -20.0425
0 13.8379 -4.49586 1.60205
0 16.6606 -3.38191 7.25704
0 29.1841 0.849207 14.0109
0 36.0292 5.20078 -6.28641
26 36.7026 3.64278 16.5281
26 41.3818 9.19902 -1.35111
0 66.7964 19.9579 34.4446
26 77.6874 24.8664 28.6346
0 86.8811 30.4229 22.3579
26 5.8164 -11.5093 -34.9067
0 22.8225 -3.26102 1.24419
0 57.0537 10.4254 33.1737
0 67.2209 15.5802 29.9967
0 2.38036 -15.2894 -24.0563
0 19.925 -8.44198 -20.3241
0 27.5192 -4.55644 -23.4234
26 34.5668 -0.473152 11.5787
0 46.7787 3.55189 4.69622
0 50.1008 4.35516 21.8165
26 75.1694 13.9371 59.1915
26 77.2587 17.123 26.3606
26 77.5473 18.7878 24.5941
0 22.9054 -9.75406 3.93851
0 52.3322 3.50911 28.8811
26 78.9618 15.8336 22.3357
26 79.7621 14.3426 24.0124
26 79.0114 16.0243 27.5317
26 81.988 17.4278 25.6639
26 33.3272 -8.14092 -23.0297
0 47.3281 -0.903475 3.11462
0 69.0358 8.55182 28.2902
26 80.5139 12.8062 25.6935
26 82.2721 15.1207 44.3783
0 67.978 4.55414 33.9757
0 77.4291 7.82665 29.342
0 77.6787 7.67131 35.0746
26 26.8646 -19.5135 30.1142
0 63.5062 -2.51748 35.4158
0 66.6705 0.711815 33.9286
0 74.5144 4.44202 36.5619
0 77.3371 5.55597 42.2169
26 90.9758 11.2157 29.6134
26 115.217 15.5269 55.8977
26 51.369 -15.7479 1.73492
26 14.076 -35.5823 -48.8028
0 94.2985 -0.116716 34.1397
26 95.0014 1.28934 27.6988
0 101.768 3.8465 28.174
26 110.258 8.012 28.8589
26 70.7973 -13.3629 51.2727
0 103.033 1.27346 28.0492
0 97.4209 -3.30279 32.4805
0 97.5457 -3.38046 35.3468
0 97.6706 -3.45813 38.2131
0 88.3943 -10.953 32.6663
0 103.583 -3.18191 26.4676
0 106.405 -2.06796 32.1226
0 97.3789 -9.71816 32.3084
26 106.122 -11.879 44.617
26 105.539 -10.5372 46.2942
26 107.841 -12.4424 46.1413
26 94.8688 -38.3956 36.6935
