ITEM: TIME
40.0
ITEM: TIMESTEP
0
ITEM: NUMBER OF ATOMS
92
ITEM: BOX BOUNDS pp pp pp
-96.145 96.145
-96.145 96.145
-96.145 96.145
ITEM: ATOMS type x y z
26 0.923351 4.05431 -36.4484
26 7.71353 49.3564 -1.1738
26 23.6729 37.3894 -17.5369
26 17.8916 50.0525 -2.40124
26 47.7273 39.9379 -30.9669
0 25.4533 29.5422 -7.21744
0 25.2978 19.8252 -11.7874
0 25.736 26.237 -3.80436
26 -13.7238 4.53453 9.80183
26 -5.0327 17.8254 14.6644
0 21.8638 5.38446 -11.6094
0 34.5772 3.07221 -23.349
0 32.1089 3.22827 -23.5969
0 27.2553 6.05683 -15.0252
0 25.4249 6.80299 -12.9442
0 22.8568 9.86988 -10.3649
0 24.4876 14.9454 -6.79166
0 26.2183 17.1101 -6.0455
26 -19.1252 5.42023 22.605
0 21.6084 -1.4217 -13.3522
26 43.1901 -7.14404 -36.2204
26 41.6621 -6.02579 -32.7584
0 24.5317 -0.593274 -17.0158
0 13.5489 3.88366 -4.53006
0 23.2392 3.65381 -9.77896
0 21.4088 4.39997 -7.698
0 20.6711 6.72071 -7.19967
0 22.302 11.7962 -3.6264
0 -0.512768 -2.18484 7.04937
26 40.6755 -14.1942 -38.4794
26 45.1745 -12.775 -35.5051
26 47.2562 -9.8356 -34.821
26 44.6122 -10.4846 -34.9592
26 46.4877 -7.3555 -34.3947
0 35.5975 -2.55377 -20.4343
0 24.6147 1.92317 -7.94851
0 33.0294 0.513131 -17.855
0 22.0466 4.99007 -5.36921
0 38.421 1.1855 -21.2708
0 29.2687 4.91628 -10.8659
0 25.6077 6.40859 -6.70402
0 30.9993 7.08096 -10.1198
0 27.3384 8.57327 -5.95787
0 27.9762 9.16337 -3.62908
0 25.5079 9.31943 -3.8769
0 27.2386 11.4841 -3.13075
0 36.2911 10.6642 -10.7084
26 33.9776 24.7638 6.92933
26 45.5561 -15.4233 -35.6471
26 40.2895 -14.8839 -32.4587
26 44.1701 -14.1101 -33.7644
0 33.3121 -2.7921 -14.4419
0 35.0427 -0.62742 -13.6957
0 34.0057 10.4258 -4.71606
26 35.226 20.5461 6.83741
26 30.6031 21.6404 7.73469
26 31.3955 22.3511 9.76771
26 34.5512 24.3142 9.34149
0 25.8347 -9.52448 -10.688
0 21.4361 -5.71143 -6.02773
0 30.4886 -6.53137 -13.6054
0 29.296 -5.19512 -9.19568
0 21.9741 -2.21049 -0.871826
0 34.6876 -4.52275 -12.6114
0 36.4182 -2.35807 -11.8653
0 32.1194 -1.45585 -10.0322
0 30.289 -0.709694 -7.95119
0 33.8501 0.708831 -9.28599
26 31.1518 17.1651 9.7003
26 34.8769 16.7894 6.06285
26 33.8227 18.9043 7.37485
26 32.8919 19.3106 12.7234
26 33.9223 22.1172 10.1132
26 34.9812 16.3783 10.8618
26 47.7452 20.2714 6.75748
26 17.7214 -36.4638 -21.1078
0 27.6484 -4.84336 -0.874507
26 14.1344 -45.684 -24.8256
26 16.2058 -6.02263 12.1095
26 -5.31024 -4.70219 36.464
26 17.5876 -11.0085 13.1448
26 21.234 -8.89484 11.9705
26 17.6954 -8.7422 14.09
26 62.1854 7.8567 -4.73086
26 25.9778 -21.8143 5.62549
26 27.0672 -20.2888 4.13469
26 6.82308 -47.3131 -2.87497
26 46.268 -3.23908 14.7946
26 25.6382 -23.3678 15.8143
26 27.403 -18.2157 19.5752
26 25.8558 -51.8083 4.51025
26 25.1097 -49.5738 4.9927
