ITEM: TIME
40.0
ITEM: TIMESTEP
0
ITEM: NUMBER OF ATOMS
98
ITEM: BOX BOUNDS pp pp pp
-96.145 96.145
-96.145 96.145
-96.145 96.145
ITEM: ATOMS type x y z
26 8.53007 -24.2896 21.0267
26 9.25123 -21.3968 19.3274
26 27.2326 -15.4443 20.9289
26 11.741 -22.9311 15.0063
26 -0.363578 -20.2839 11.4257
26 95.4913 -9.15388 35.8725
26 41.9763 22.592 12.535
26 10.0874 -23.9289 9.41707
0 16.412 -15.3809 8.48199
0 19.8468 -9.96365 8.68978
0 23.4773 -11.6051 11.2932
26 30.8781 5.52438 9.56361
0 -0.564735 0.295985 -0.674695
26 31.3236 8.17923 7.89908
0 19.3411 -11.7559 4.30971
0 22.1053 -12.0158 5.03729
0 16.6023 -17.5085 1.33777
0 20.0371 -12.0912 1.54556
0 20.3724 -9.25265 1.28566
0 25.9008 -9.77244 2.74082
0 20.9544 -25.4978 -1.06736
0 21.2897 -22.6592 -1.32725
0 19.5315 -13.8835 -2.83452
0 19.8668 -11.0449 -3.09441
0 28.6086 6.92378 -1.58271
0 31.5123 16.5612 -3.51063
26 4.29634 -21.8786 -7.17103
0 20.7586 -18.439 -3.46296
0 29.9753 12.2657 -4.86665
26 30.4475 -34.8213 -3.39267
0 22.1253 -13.0971 -6.74691
26 17.3124 1.88818 -8.94558
0 39.8557 3.7566 -5.81661
0 45.3841 3.23681 -4.36145
0 40.5263 9.43377 -6.33641
0 48.8189 8.65408 -4.15367
0 52.4495 7.0126 -1.55027
0 77.9977 10.3507 4.47816
26 28.1444 -32.0635 -8.14543
26 29.1562 -35.1776 -5.86359
26 27.0172 -32.0315 -10.133
26 28.9584 -23.7192 -11.2014
26 125.699 -17.1792 11.5888
26 39.9429 8.29321 -12.3763
26 35.9235 18.7157 -13.8796
26 42.6982 7.74697 -15.456
26 72.9164 6.39187 -5.97234
26 65.8332 14.0437 -10.2513
26 66.6793 12.7479 -8.4189
26 50.2109 22.8988 -12.9796
26 13.5582 -5.50889 -22.4655
26 39.4897 7.88497 -18.1517
0 105.464 13.7292 -2.42585
26 58.2373 3.05808 -13.7254
0 65.7847 2.83952 -14.0766
26 42.7114 5.82299 -18.8133
26 95.3761 15.0678 -8.9025
0 99.0944 9.61812 -8.00118
26 63.4277 17.8839 -19.4853
0 107.526 18.7358 -8.47395
26 122.89 36.6423 -6.77508
26 87.201 -26.3741 -12.5886
26 91.0549 -15.585 -15.1861
26 94.457 -14.9439 -12.8972
0 100.151 6.10893 -13.2696
26 139.278 8.54891 -5.35571
0 107.938 3.53695 -15.4669
0 111.904 4.73405 -13.1234
0 109.475 7.83253 -14.1109
26 139.58 6.76942 -6.86812
0 106.18 12.3126 -16.9742
0 109.81 10.6711 -14.3708
26 137.225 7.41844 -6.25646
0 107.381 13.7696 -15.3583
0 111.398 2.94176 -17.5035
0 111.734 5.78034 -17.7634
0 107.407 7.75713 -17.6026
0 112.069 8.61893 -18.0233
0 129.52 5.67796 -11.782
0 104.447 15.0758 -20.7258
0 113.075 17.1347 -18.803
0 110.001 8.54353 -21.515
0 107.351 24.7132 -22.6537
26 128.96 -9.95354 -17.3049
26 85.1368 12.1317 -30.4695
26 128.67 -11.6606 -21.0936
26 126.533 -9.84271 -20.184
26 93.7247 -0.408575 -28.2064
0 112.259 6.49134 -25.1675
0 127.421 16.5462 -22.5692
0 127.782 13.3723 -25.0735
0 108.237 22.2504 -32.5621
26 78.9755 50.0519 -44.7737
26 114.666 30.9188 -40.1378
26 118.348 32.5974 -39.3697
26 99.4196 7.02314 -44.1569
26 155.423 -35.4216 -39.6831
26 127.326 -18.7348 -51.8052
