ITEM: TIME
40.0
ITEM: TIMESTEP
0
ITEM: NUMBER OF ATOMS
98
ITEM: BOX BOUNDS pp pp pp
-96.145 96.145
-96.145 96.145
-96.145 96.145
ITEM: ATOMS type x y z
26 -3.99999 31.4815 -21.023
26 53.237 71.4264 -62.8087
26 14.2855 38.4313 -1.88415
26 29.7392 57.1281 58.2697
26 -31.8656 7.47339 61.3068
26 -15.7868 10.9167 71.0094
26 33.8102 33.2919 -23.355
26 -2.13962 10.0313 25.9863
26 -10.8006 -9.02906 -35.9289
0 18.0259 12.1104 -12.2155
0 16.1227 5.89359 -23.6516
0 19.7172 12.0248 -7.76686
0 17.1672 13.2664 26.5577
26 2.17637 -6.94992 4.5544
26 14.0571 8.83045 53.103
0 20.9129 7.90989 -3.20932
0 23.5956 9.47671 -8.82651
0 18.3722 2.00344 -6.06433
0 20.4174 3.88066 -3.10038
0 21.6214 5.42968 -16.0266
0 22.6751 5.65442 -2.99681
0 26.8454 6.49698 -28.6367
0 23.8791 7.20344 -15.923
0 25.3579 7.22124 -8.61401
0 30.2983 10.5618 -14.1276
0 30.4398 12.6282 -12.7519
26 13.9357 2.83624 59.16
0 25.2874 2.98508 -14.2258
0 22.7461 3.4846 -7.23292
0 27.5451 4.75884 -14.1223
0 26.9076 5.06923 -5.54112
0 34.9558 9.7697 -22.3927
0 35.301 12.4746 3.4543
26 46.2056 22.3204 17.5523
26 51.4906 25.139 -26.0426
26 14.7014 -9.59622 -21.0993
0 21.0554 -2.8357 -21.5295
0 26.8371 0.833076 -11.1529
0 24.7209 1.12567 -9.8808
0 26.4121 1.04001 -5.43219
0 25.5621 1.45387 6.00933
0 26.9786 2.89942 -9.77723
0 28.8823 2.7103 -8.189
0 28.6698 2.81376 -5.32862
0 26.3411 3.20982 -1.19608
0 31.5651 4.27712 -13.8062
0 31.3526 4.38058 -10.9458
26 15.3628 -5.42082 47.3208
0 34.9475 4.1058 -4.90898
26 32.3415 4.26157 10.0049
0 47.8564 15.0587 4.29358
26 47.8617 17.0773 33.7611
0 29.5116 -3.26401 0.713577
0 32.4068 -1.80065 -7.76399
0 32.1943 -1.69718 -4.90361
0 34.6645 -0.0268939 -7.66042
26 34.1858 3.17185 11.5185
26 43.9847 8.61945 -3.89755
26 45.9906 8.55544 -0.666894
26 43.6798 9.66912 11.3846
26 46.9479 13.2368 33.6711
26 51.306 15.9682 15.5053
26 49.5567 14.5992 36.1234
0 34.169 -4.05612 -7.55149
0 33.8855 -1.78284 -0.455007
0 33.673 -1.67938 2.40537
0 36.3558 -0.112555 -3.21182
0 36.1433 -0.00908984 -0.351438
0 40.9422 1.26514 -7.24078
26 50.8912 11.7133 12.9265
26 46.7013 11.1989 32.4138
26 51.1073 13.8295 14.2236
26 52.7714 11.8372 16.8905
26 54.995 13.6912 17.1082
26 52.8108 13.8934 18.3277
0 37.764 -4.33091 -1.51466
0 37.5515 -4.22744 1.34572
0 51.2394 8.48143 3.34286
26 55.0513 11.3016 12.9568
26 52.6372 9.69291 15.5577
26 55.0478 13.3569 14.3456
26 57.1935 14.9728 14.4258
26 58.986 13.0313 17.4194
26 56.8833 13.3996 18.7002
26 12.9231 -27.3111 -0.348206
26 56.5727 9.30257 15.8539
0 41.8549 -6.98244 -5.43469
26 75.4304 18.7073 -0.995701
26 75.1605 14.902 -10.2835
26 45.9108 -14.8444 3.10598
26 72.296 5.28081 17.9711
0 53.9071 -20.4975 3.14931
26 51.2523 -28.4123 -21.9899
26 49.5303 -25.9192 11.6375
26 50.8776 -26.3844 13.8366
26 49.8883 -26.0078 28.151
26 26.1567 -64.7348 -45.553
26 12.217 -80.4662 51.178
