ITEM: TIME
40.0
ITEM: TIMESTEP
0
ITEM: NUMBER OF ATOMS
106
ITEM: BOX BOUNDS pp pp pp
-96.145 96.145
-96.145 96.145
-96.145 96.145
ITEM: ATOMS type x y z
26 8.36858 30.2553 -2.02877
0 1.25747 0.15698 0.516928
26 5.80084 1.67236 -31.4903
26 0.956167 -26.0147 -6.209
26 0.659888 -39.8593 -11.0823
0 14.6926 8.00676 7.89508
26 13.5047 -30.148 -50.8623
26 13.5875 -14.412 -16.4179
26 19.789 -18.5079 -50.0721
26 20.5994 -15.7531 -48.9042
26 18.7074 -16.8367 -47.8653
26 17.9685 -12.5072 -28.2248
26 19.9547 -2.58773 -20.7584
0 18.5594 5.38087 6.99716
26 24.4338 30.9502 20.8785
0 20.6484 -18.3027 -38.5998
26 22.4865 -14.7582 -50.0222
0 22.0583 2.80859 8.94524
0 22.506 5.61348 11.8449
0 21.7342 7.37012 10.2647
0 26.6279 23.8777 10.5864
26 26.1256 29.1836 19.2308
26 26.579 38.3574 37.1346
0 24.3068 -15.158 -25.1605
0 24.7854 1.99296 9.31316
0 25.5651 6.39365 2.09462
0 26.7846 7.44189 6.57439
0 24.4613 6.55449 10.6326
26 27.8903 13.75 11.6809
0 22.9199 -28.0806 -32.3328
0 27.69 -18.9394 -36.2302
0 28.1197 9.69921 24.0719
26 35.8943 25.1401 -5.53949
0 27.1546 -30.7601 -36.0767
0 26.0508 -30.5992 -27.5387
0 29.2336 -22.4527 -33.0699
0 32.5269 2.89851 -1.28138
26 37.1284 32.7252 12.6633
0 31.6675 -4.36067 0.19155
0 32.887 -3.31243 4.67132
0 32.4831 -1.6094 0.245163
0 32.5629 1.2491 5.99078
26 46.0944 5.28316 -23.4881
26 44.7197 12.8647 -7.7933
26 44.6633 14.3306 -4.97586
26 40.9606 19.9117 35.6844
26 37.9445 -18.6336 -10.9378
0 41.3205 -7.02202 -10.0887
0 40.2965 -4.00268 4.19494
0 44.5392 -0.524859 -8.34769
0 43.5999 -10.6425 -12.6204
0 43.232 -10.5889 -9.77437
0 44.4156 -7.89127 -12.5668
0 45.635 -6.84303 -8.08699
0 44.5313 -6.68218 0.451014
26 47.5038 15.2986 22.1483
0 45.9951 -13.054 -2.13429
0 45.6271 -13.0004 0.711712
26 39.1087 -50.5275 -11.7544
26 36.6336 -63.3397 -5.30005
0 46.9235 -31.2465 -4.56612
0 52.921 -14.8997 -12.7824
0 50.9657 -15.8407 -11.5702
26 64.0281 31.6533 2.22971
26 44.5016 -40.6878 14.8098
0 48.5827 -33.5507 11.612
26 45.4754 -45.7591 23.0179
26 73.0804 10.311 -43.9638
26 56.64 -33.4944 7.63813
26 67.0083 -3.60171 -9.02749
26 67.4566 0.96748 -12.776
0 72.1941 3.57986 -25.1118
26 78.658 13.3921 -51.2857
26 78.1254 16.5922 -51.3116
26 57.5914 -43.5306 7.98626
26 57.5843 -37.4636 7.87905
26 71.5614 -3.30929 -7.58148
26 72.0093 1.4245 -11.35
26 60.4581 -40.5659 8.33359
26 73.1391 -2.39069 -11.1742
0 81.9269 3.77701 -29.6465
0 80.7872 5.58727 -28.3806
0 80.4193 5.64088 -25.5346
0 83.0745 8.12408 -39.711
26 77.2487 -0.962805 16.9087
0 83.5143 4.77163 -28.0127
0 85.1017 5.76626 -26.3789
0 90.5279 11.9417 -41.7139
0 98.4369 24.7216 -49.6159
26 103.294 29.6784 -80.201
26 101.932 20.1 -57.855
26 107.333 29.8384 -65.3003
26 100.104 29.6854 -22.6902
26 79.0911 -43.897 3.46784
26 87.8209 -15.6186 -9.69979
26 94.3008 2.85289 -17.2029
0 101.48 13.1871 -41.7688
0 99.5249 12.2461 -40.5565
26 108.136 28.1554 -63.8134
0 104.787 28.7001 -43.0809
26 97.07 -11.5077 -47.6551
0 109.021 26.0206 -46.8248
0 114.404 27.6882 -60.6333
0 110.609 27.0152 -45.191
26 117.005 19.5102 -30.3848
26 123.436 29.522 -61.6921
