ITEM: TIME
40.0
ITEM: TIMESTEP
0
ITEM: NUMBER OF ATOMS
92
ITEM: BOX BOUNDS pp pp pp
-96.145 96.145
-96.145 96.145
-96.145 96.145
ITEM: ATOMS type x y z
26 57.312 52.8552 -72.1825
26 15.717 42.3066 -35.3973
26 -55.2107 8.79518 -0.485008
26 -18.8548 25.8864 -8.03841
26 -15.4294 -23.9676 -60.1266
26 21.2808 50.6818 -4.28777
26 21.6337 9.63627 -42.9284
26 47.0849 24.479 -50.6419
26 33.4828 10.3011 -49.0338
26 38.5242 25.3656 -37.0204
0 27.6127 28.3884 -26.7319
26 55.3745 21.6142 -57.4169
26 16.4547 19.9416 -7.51908
26 27.6635 21.4635 -14.3943
26 12.6084 13.5606 -4.80853
0 31.0025 12.8878 -11.9739
0 6.0588 -6.63894 -6.1006
0 4.38906 -5.94488 -3.87174
0 8.0036 -1.70693 -2.48359
0 20.1044 1.87379 -9.31682
0 44.581 14.6613 -17.1374
0 47.3334 20.0962 -11.2241
0 1.39007 -10.7931 0.935096
26 4.07691 9.99419 22.3662
0 40.4993 3.68409 -20.4728
0 46.5912 7.73089 -19.0172
0 46.8662 13.3569 -13.1713
0 17.913 -2.47157 -2.21364
0 23.1973 1.07234 -3.05435
26 37.3899 30.0639 17.03
0 7.2899 -7.85953 6.28935
0 14.2439 -5.00968 3.21978
0 26.2072 -4.24199 -6.53638
0 22.8677 -2.85389 -2.07866
26 71.1175 -8.87748 -50.0304
26 33.0012 17.9122 11.2773
0 53.0411 21.9166 -1.97117
0 9.57519 -9.16388 10.2555
0 13.9143 -8.9359 4.19547
0 17.3913 -7.51098 2.66068
0 15.7216 -6.81693 4.88954
0 26.6852 -7.66532 -3.26434
0 21.0059 -3.27302 4.04883
26 58.5038 -1.97024 -26.4356
0 18.869 -9.31822 4.33045
0 22.8241 -11.3166 6.0677
0 20.4842 -8.31244 8.92315
26 40.2761 -1.70761 2.37955
26 59.425 3.97436 -8.47161
0 16.5401 -16.4766 8.5107
0 58.8143 11.8746 1.78496
0 18.2929 -12.6578 16.0263
26 32.4959 1.98895 23.0239
0 62.6318 7.06317 0.599286
0 62.2368 14.9994 7.07173
0 63.8345 -0.370133 -3.57681
0 62.1647 0.323919 -1.34795
26 54.7177 3.8141 7.61692
26 57.2558 4.04044 5.94692
26 65.518 14.2944 9.64132
0 31.8822 -21.0469 12.1877
26 21.0564 -18.3588 23.5156
26 63.3845 -4.34851 1.01155
0 22.9289 -27.1289 18.4618
26 17.2767 -24.8704 27.2535
26 26.4176 -26.9936 11.7856
26 20.7581 -24.5605 24.0633
26 15.691 -22.1845 31.0942
26 64.1363 -3.93013 3.28222
26 17.1458 -25.9116 31.3785
26 19.4487 -24.2858 26.292
0 15.3878 -23.1558 31.9025
26 17.3151 -22.6548 34.6215
26 22.3904 -21.8899 25.6409
0 18.8648 -21.7308 30.3677
26 19.5681 -21.1039 31.6506
26 19.1197 -25.814 32.8891
0 18.6727 -22.844 34.2663
26 77.9537 -10.4013 -0.925153
0 76.6447 -3.04942 6.85423
26 70.2726 7.10657 24.8071
26 21.2687 -29.8463 42.9784
0 71.6464 -11.1298 14.8656
0 76.4636 -14.3252 12.0777
0 80.4186 -16.3236 13.8149
26 79.3935 -45.2209 0.735215
0 87.8616 -27.0597 15.3422
0 85.3842 -26.8685 15.2747
26 97.45 -6.73512 26.3624
26 83.9264 -18.297 34.5635
26 93.6141 -25.3734 21.6202
26 93.54 -26.0076 23.7932
