ITEM: TIME
40.0
ITEM: TIMESTEP
0
ITEM: NUMBER OF ATOMS
80
ITEM: BOX BOUNDS pp pp pp
-96.145 96.145
-96.145 96.145
-96.145 96.145
ITEM: ATOMS type x y z
0 0.0431513 -1.64628 -1.91748
26 10.3631 -10.2799 22.6299
0 12.4818 -0.531075 5.01954
0 14.1329 -4.88015 6.02793
0 17.2321 -0.680326 0.698983
26 18.0715 7.81944 -21.1427
26 21.0522 16.3975 -11.4335
26 23.2183 2.74828 -12.8627
0 23.8737 3.42828 -2.64638
0 23.1756 6.30832 -5.42002
26 28.4574 -5.30495 1.2171
0 26.638 3.34812 -3.42537
26 45.9846 24.4615 23.2902
0 40.2845 4.4053 -2.79249
0 43.0487 4.32514 -3.57148
26 46.9873 -5.82751 3.5273
26 49.548 -0.846789 14.8455
26 52.4515 14.6457 -27.0927
26 55.7327 21.9205 -16.0168
0 59.7944 9.58215 -8.26756
0 58.7613 8.18221 -6.49124
0 57.3651 13.9423 -12.0385
26 66.0883 10.2026 -9.9386
26 70.7332 14.4033 17.0012
26 51.6155 -26.9733 -64.9255
26 73.3922 8.50798 5.76758
0 75.8702 6.27918 -3.86371
0 75.1721 9.15923 -6.63736
0 77.6014 4.79908 -2.86639
26 97.705 20.9447 37.7687
26 98.7722 -5.74941 23.207
0 88.5501 13.0495 -17.8448
26 103.358 17.0654 16.0197
0 109.454 18.3699 23.9973
0 111.52 21.1698 20.4447
26 98.5676 32.1028 -23.5749
0 106.8 3.97537 -5.13114
0 106.677 19.7423 -12.4879
0 104.946 21.2224 -13.4853
26 110.789 50.5384 -0.832985
0 112.838 9.58891 5.11805
0 113.856 18.1848 7.84744
0 115.456 -3.42513 -0.144504
26 128.115 -5.77896 32.081
0 122.89 -3.57168 15.652
0 118.366 9.42859 3.56007
0 118.083 19.4576 -3.7746
0 118.861 19.4465 -1.01202
0 120.672 20.8354 -0.0257568
0 119.974 23.7155 -2.7994
0 120.752 23.7044 -0.0368222
26 112.627 10.9364 -40.2519
0 122.673 13.5704 -8.07302
0 124.135 17.8752 1.9689
0 123.517 23.6242 -0.815813
0 116.07 28.0149 -32.9915
26 110.26 10.2428 -59.7422
0 127.852 16.326 -0.575346
0 124.041 19.2503 -14.3993
26 126.264 34.2567 -2.33126
26 135.711 -0.973899 21.7981
26 136.175 1.80546 12.6986
26 135.808 1.15955 16.4628
26 120.765 22.0177 -44.1289
26 116.698 27.9433 -59.1833
0 127.3 29.1881 -19.7504
26 125.795 57.1952 -35.6164
0 131.061 9.00297 -14.9268
26 127.865 31.3347 -36.385
26 138.22 6.65294 -4.31168
0 128.67 31.9162 -46.9616
26 133.402 33.9715 -37.8406
26 144.111 34.4654 -10.3417
26 137.465 23.7005 -62.1037
26 140.377 25.8288 -49.4683
26 142.572 32.1235 -58.3269
26 141.072 -29.5214 -62.6124
26 167.661 27.4982 12.89
26 149.868 33.3949 -58.8886
26 173.889 -41.6049 23.4964
