ITEM: TIME
40.0
ITEM: TIMESTEP
0
ITEM: NUMBER OF ATOMS
10
ITEM: BOX BOUNDS pp pp pp
-47.478 47.478
-47.478 47.478
-47.478 47.478
ITEM: ATOMS type x y z
0 1.68394 -0.07773 -0.0785052
0 4.41019 0.0195968 0.191636
0 5.04837 0.836729 2.72934
74 7.79604 12.9115 11.1802
0 7.77462 0.934056 2.99948
74 6.82575 11.2585 13.1653
74 5.8947 -6.47796 9.08535
0 10.1198 -4.18505 8.99345
74 22.3852 0.679373 1.98213
74 15.8189 -17.6932 6.5601
