ITEM: TIME
40.0
ITEM: TIMESTEP
0
ITEM: NUMBER OF ATOMS
10
ITEM: BOX BOUNDS pp pp pp
-47.478 47.478
-47.478 47.478
-47.478 47.478
ITEM: ATOMS type x y z
74 27.3522 9.84412 -5.55411
0 17.4355 3.69261 -1.55446
0 19.5879 4.78503 -2.85375
0 -0.999309 1.00402 0.347124
0 7.22198 3.4263 4.4361
0 18.0234 3.40762 1.10781
74 18.4952 1.89119 9.93143
74 29.5805 -5.55696 0.0566744
74 18.2494 -9.3361 -0.768201
74 21.6512 -6.94512 0.117807
