ITEM: TIME
40.0
ITEM: TIMESTEP
0
ITEM: NUMBER OF ATOMS
8
ITEM: BOX BOUNDS pp pp pp
-47.478 47.478
-47.478 47.478
-47.478 47.478
ITEM: ATOMS type x y z
0 -0.0640748 -0.145495 -0.491545
74 16.7581 12.9411 0.203967
0 8.15506 -0.0642804 -0.223681
0 11.0471 -1.23125 -4.44603
74 12.8724 -26.226 16.4678
0 14.1707 -7.92542 -14.101
74 11.5053 -8.30573 -19.342
74 17.1355 -11.0213 -20.1477
