ITEM: TIME
40.0
ITEM: TIMESTEP
0
ITEM: NUMBER OF ATOMS
10
ITEM: BOX BOUNDS pp pp pp
-47.478 47.478
-47.478 47.478
-47.478 47.478
ITEM: ATOMS type x y z
0 0.983748 -0.792207 -0.447794
74 2.29016 1.59133 6.45659
0 8.16162 8.91488 0.986
74 7.8435 -15.9332 -3.12326
0 11.3994 8.17803 7.23685
74 11.538 -13.7173 -3.16916
0 10.7305 -7.93711 0.874879
0 13.9517 -0.576005 -3.9332
74 16.1908 12.9876 -1.76976
74 18.2184 13.9739 -0.0947319
