ITEM: TIME
40.0
ITEM: TIMESTEP
0
ITEM: NUMBER OF ATOMS
8
ITEM: BOX BOUNDS pp pp pp
-47.478 47.478
-47.478 47.478
-47.478 47.478
ITEM: ATOMS type x y z
74 7.24251 -3.54188 -0.581086
0 12.6959 4.64224 4.49194
74 14.3076 11.522 1.55939
74 13.0625 14.9618 3.9303
0 2.73779 -9.15013 -7.29583
0 11.3578 -1.8473 0.465152
74 13.953 9.8313 -0.520662
0 8.0396 -4.99951 -5.7935
