ITEM: TIME
40.0
ITEM: TIMESTEP
0
ITEM: NUMBER OF ATOMS
8
ITEM: BOX BOUNDS pp pp pp
-47.478 47.478
-47.478 47.478
-47.478 47.478
ITEM: ATOMS type x y z
0 0.602705 -1.86582 1.19384
0 6.01395 1.0481 -0.324381
74 19.16 16.9614 -25.6775
74 25.0151 14.7628 -9.3271
74 33.034 8.08439 7.00027
0 14.0482 3.47249 -6.63201
0 19.0757 1.46472 -5.76528
74 14.8042 -17.022 9.51042
