ITEM: TIME
40.0
ITEM: TIMESTEP
0
ITEM: NUMBER OF ATOMS
8
ITEM: BOX BOUNDS pp pp pp
-47.478 47.478
-47.478 47.478
-47.478 47.478
ITEM: ATOMS type x y z
74 5.07837 18.5674 5.03101
74 11.4021 20.0423 8.63221
0 6.5699 5.57031 -0.23728
0 9.66873 6.20662 -0.347174
0 1.00379 1.1988 -0.152146
74 -6.72883 -7.02866 -12.0953
0 9.90015 -2.02359 4.112
74 15.771 -12.4173 -6.90306
