ITEM: TIME
40.0
ITEM: TIMESTEP
0
ITEM: NUMBER OF ATOMS
12
ITEM: BOX BOUNDS pp pp pp
-47.478 47.478
-47.478 47.478
-47.478 47.478
ITEM: ATOMS type x y z
74 10.7384 5.593 -7.1435
0 7.6689 0.662032 -2.79206
74 19.5591 -1.68866 -8.99093
74 19.1596 1.587 -5.75719
0 -1.15789 -1.11987 -0.226245
0 8.20012 -0.851578 -0.0632528
0 5.81331 -0.808917 -1.41084
0 10.0557 0.61937 -1.44447
0 22.1425 -0.229669 -2.43245
74 20.4346 -13.0611 -4.70177
74 10.0887 -8.30458 4.29113
74 10.2323 -5.9694 3.13819
